
#(C) 2021 by FIZ Karlsruhe - Leibniz Institute for Information Infrastructure.  All rights reserved.
data_42062-ICSD
_database_code_ICSD 42062
_audit_creation_date 2000-07-15
_audit_update_record 2006-04-01
_chemical_name_common 'Lithium germanide (1/1)'
_chemical_formula_structural 'Li Ge'
_chemical_formula_sum 'Ge1 Li1'
_chemical_name_structure_type LiSi
_exptl_crystal_density_diffrn 3.85
_citation_title

;
Die Kristallstruktur von Li Ge - ein neuartiger, dreidimensionaler Verband von
Element(IV)-atomen
;
loop_
_citation_id
_citation_journal_full
_citation_year
_citation_journal_volume
_citation_page_first
_citation_page_last
_citation_journal_id_ASTM
primary

;
Zeitschrift fuer Naturforschung, Teil B: Anorganische Chemie, Organische
Chemie, Biochemie, Biophysik, Biologie
; 1969 24 1351 1352 ZENBAX
loop_
_citation_author_citation_id
_citation_author_name
primary 'Menges, E.'
primary 'Hopf, V.'
primary 'Schaefer, H.'
primary 'Weiss, A.'
_cell_length_a 9.75(2)
_cell_length_b 9.75(2)
_cell_length_c 5.78(2)
_cell_angle_alpha 90.
_cell_angle_beta 90.
_cell_angle_gamma 90.
_cell_volume 549.46
_cell_formula_units_Z 16
_space_group_name_H-M_alt 'I 41/a S'
_space_group_IT_number 88
loop_
_space_group_symop_id
_space_group_symop_operation_xyz
1 'y, -x+1/2, z+1/4'
2 '-y, x+1/2, z+1/4'
3 'y, -x, -z'
4 '-y, x, -z'
5 '-x, -y+1/2, -z+1/4'
6 'x, y+1/2, -z+1/4'
7 '-x, -y, z'
8 'x, y, z'
9 'y+1/2, -x, z+3/4'
10 '-y+1/2, x, z+3/4'
11 'y+1/2, -x+1/2, -z+1/2'
12 '-y+1/2, x+1/2, -z+1/2'
13 '-x+1/2, -y, -z+3/4'
14 'x+1/2, y, -z+3/4'
15 '-x+1/2, -y+1/2, z+1/2'
16 'x+1/2, y+1/2, z+1/2'
loop_
_atom_type_symbol
_atom_type_oxidation_number
Ge0+ 0
Li0+ 0
loop_
_atom_site_label
_atom_site_type_symbol
_atom_site_symmetry_multiplicity
_atom_site_Wyckoff_symbol
_atom_site_fract_x
_atom_site_fract_y
_atom_site_fract_z
_atom_site_B_iso_or_equiv
_atom_site_occupancy
Ge1 Ge0+ 16 f 0.199 0.106 0.269 . 1.
Li1 Li0+ 16 f 0.15 0.1 0.82 . 1.
#End of TTdata_42062-ICSD