
#(C) 2021 by FIZ Karlsruhe - Leibniz Institute for Information Infrastructure.  All rights reserved.
data_1621-ICSD
_database_code_ICSD 1621
_audit_creation_date 1980-01-01
_audit_update_record 2011-08-01
_chemical_name_common 'Germanium(II) sulfide'
_chemical_formula_structural 'Ge S'
_chemical_formula_sum 'Ge1 S1'
_chemical_name_structure_type GeS
_exptl_crystal_density_diffrn 4.24
_citation_title 'Verfeinerung der Struktur von Germanium(II)-sulfid, Ge S'
loop_
_citation_id
_citation_journal_full
_citation_year
_citation_journal_volume
_citation_page_first
_citation_page_last
_citation_journal_id_ASTM
primary

;
Acta Crystallographica, Section B: Structural Crystallography and Crystal
Chemistry
; 1978 34 1322 1323 ACBCAR
loop_
_citation_author_citation_id
_citation_author_name
primary 'Bissert, G.'
primary 'Hesse, K.F.'
_cell_length_a 10.470(2)
_cell_length_b 4.297(1)
_cell_length_c 3.641(1)
_cell_angle_alpha 90.
_cell_angle_beta 90.
_cell_angle_gamma 90.
_cell_volume 163.81
_cell_formula_units_Z 4
_space_group_name_H-M_alt 'P n a m'
_space_group_IT_number 62
loop_
_space_group_symop_id
_space_group_symop_operation_xyz
1 'x+1/2, -y+1/2, z'
2 'x, y, -z+1/2'
3 '-x+1/2, y+1/2, z+1/2'
4 '-x, -y, -z'
5 '-x+1/2, y+1/2, -z'
6 '-x, -y, z+1/2'
7 'x+1/2, -y+1/2, -z+1/2'
8 'x, y, z'
loop_
_atom_type_symbol
_atom_type_oxidation_number
Ge2+ 2
S2- -2
loop_
_atom_site_label
_atom_site_type_symbol
_atom_site_symmetry_multiplicity
_atom_site_Wyckoff_symbol
_atom_site_fract_x
_atom_site_fract_y
_atom_site_fract_z
_atom_site_B_iso_or_equiv
_atom_site_occupancy
Ge1 Ge2+ 4 c 0.6220(1) 0.6270(3) 0.25 . 1.
S1 S2- 4 c 0.8491(2) 0.4989(8) 0.25 . 1.
loop_
_atom_site_aniso_label
_atom_site_aniso_type_symbol
_atom_site_aniso_beta_11
_atom_site_aniso_beta_22
_atom_site_aniso_beta_33
_atom_site_aniso_beta_12
_atom_site_aniso_beta_13
_atom_site_aniso_beta_23
Ge1 Ge2+ 0.0017(1) 0.0103(6) 0.0107(8) -.0013(2) 0 0
S1 S2- 0.0015(2) 0.0096(12) 0.0140(18) 0.0001(5) 0 0
#End of TTdata_1621-ICSD