
#(C) 2021 by FIZ Karlsruhe - Leibniz Institute for Information Infrastructure.  All rights reserved.
data_100465-ICSD
_database_code_ICSD 100465
_audit_creation_date 1981-12-31
_audit_update_record 2008-02-01
_chemical_name_common 'Lithium phosphide (1/1)'
_chemical_formula_structural 'Li P'
_chemical_formula_sum 'Li1 P1'
_chemical_name_structure_type LiAs
_exptl_crystal_density_diffrn 2.02
_citation_title 'Zur Struktur von Li P und K Sb'
loop_
_citation_id
_citation_journal_full
_citation_year
_citation_journal_volume
_citation_page_first
_citation_page_last
_citation_journal_id_ASTM
primary 'Zeitschrift fuer Kristallographie' 1981 155 307 314 ZEKRDZ
loop_
_citation_author_citation_id
_citation_author_name
primary 'Hoenle, W.'
primary 'von Schnering, H.G.'
_cell_length_a 5.582(1)
_cell_length_b 4.940(1)
_cell_length_c 10.255(2)
_cell_angle_alpha 90.
_cell_angle_beta 118.15(2)
_cell_angle_gamma 90.
_cell_volume 249.33
_cell_formula_units_Z 8
_space_group_name_H-M_alt 'P 1 21/c 1'
_space_group_IT_number 14
loop_
_space_group_symop_id
_space_group_symop_operation_xyz
1 'x, -y+1/2, z+1/2'
2 '-x, -y, -z'
3 '-x, y+1/2, -z+1/2'
4 'x, y, z'
loop_
_atom_type_symbol
_atom_type_oxidation_number
Li1+ 1
P1- -1
loop_
_atom_site_label
_atom_site_type_symbol
_atom_site_symmetry_multiplicity
_atom_site_Wyckoff_symbol
_atom_site_fract_x
_atom_site_fract_y
_atom_site_fract_z
_atom_site_B_iso_or_equiv
_atom_site_occupancy
Li1 Li1+ 4 e 0.2151(8) 0.3876(8) 0.3299(5) . 1.
Li2 Li1+ 4 e 0.2257(8) 0.6597(9) 0.0293(5) . 1.
P1 P1- 4 e 0.3165(1) 0.8952(1) 0.29198(5) . 1.
P2 P1- 4 e 0.3050(1) 0.1565(1) 0.11252(5) . 1.
loop_
_atom_site_aniso_label
_atom_site_aniso_type_symbol
_atom_site_aniso_U_11
_atom_site_aniso_U_22
_atom_site_aniso_U_33
_atom_site_aniso_U_12
_atom_site_aniso_U_13
_atom_site_aniso_U_23
Li1 Li1+ 0.0226(18) 0.0213(19) 0.0294(20) 0.0016(16) 0.0146(16) -.0022(16)
Li2 Li1+ 0.0245(19) 0.0210(19) 0.0266(19) -.0021(16) 0.0082(16) 0.0014(16)
P1 P1- 0.0113(2) 0.0129(3) 0.0128(3) 0.0007(2) 0.0063(2) 0.0010(2)
P2 P1- 0.0114(2) 0.0116(2) 0.0103(2) -.0003(2) 0.0038(2) 0.0000(2)
#End of TTdata_100465-ICSD