
#(C) 2021 by FIZ Karlsruhe - Leibniz Institute for Information Infrastructure.  All rights reserved.
data_16951-ICSD
_database_code_ICSD 16951
_audit_creation_date 1980-01-01
_audit_update_record 2007-08-01
_chemical_name_common 'Germanium sulfide - II'
_chemical_formula_structural 'Ge S2'
_chemical_formula_sum 'Ge1 S2'
_chemical_name_structure_type SiS2
_exptl_crystal_density_diffrn 3.31
_citation_title 'Germanium and silicon disulfides: Structure and synthesis'
loop_
_citation_id
_citation_journal_full
_citation_year
_citation_journal_volume
_citation_page_first
_citation_page_last
_citation_journal_id_ASTM
primary 'Science (Washington, DC, United States)' 1965 149 535 537 SCIEAS
loop_
_citation_author_citation_id
_citation_author_name
primary 'Prewitt, C.T.'
primary 'Young, H.S.'
_cell_length_a 5.480(4)
_cell_length_b 5.480(4)
_cell_length_c 9.143(4)
_cell_angle_alpha 90.
_cell_angle_beta 90.
_cell_angle_gamma 90.
_cell_volume 274.57
_cell_formula_units_Z 4
_space_group_name_H-M_alt 'I -4 2 d'
_space_group_IT_number 122
loop_
_space_group_symop_id
_space_group_symop_operation_xyz
1 '-y, -x+1/2, z+1/4'
2 'y, -x, -z'
3 'y, x+1/2, z+1/4'
4 '-y, x, -z'
5 'x, -y+1/2, -z+1/4'
6 '-x, -y, z'
7 '-x, y+1/2, -z+1/4'
8 'x, y, z'
9 '-y+1/2, -x, z+3/4'
10 'y+1/2, -x+1/2, -z+1/2'
11 'y+1/2, x, z+3/4'
12 '-y+1/2, x+1/2, -z+1/2'
13 'x+1/2, -y, -z+3/4'
14 '-x+1/2, -y+1/2, z+1/2'
15 '-x+1/2, y, -z+3/4'
16 'x+1/2, y+1/2, z+1/2'
loop_
_atom_type_symbol
_atom_type_oxidation_number
Ge4+ 4
S2- -2
loop_
_atom_site_label
_atom_site_type_symbol
_atom_site_symmetry_multiplicity
_atom_site_Wyckoff_symbol
_atom_site_fract_x
_atom_site_fract_y
_atom_site_fract_z
_atom_site_B_iso_or_equiv
_atom_site_occupancy
Ge1 Ge4+ 4 a 0 0 0 . 1.
S1 S2- 8 d 0.2387(8) 0.25 0.125 . 1.
loop_
_atom_site_aniso_label
_atom_site_aniso_type_symbol
_atom_site_aniso_beta_11
_atom_site_aniso_beta_22
_atom_site_aniso_beta_33
_atom_site_aniso_beta_12
_atom_site_aniso_beta_13
_atom_site_aniso_beta_23
Ge1 Ge4+ 0.0057(7) 0.0057(7) 0.0015(5) 0 0 0
S1 S2- 0.0053(8) 0.0033(8) 0.0015(5) 0 0.0011(7) 0
#End of TTdata_16951-ICSD