
#(C) 2021 by FIZ Karlsruhe - Leibniz Institute for Information Infrastructure.  All rights reserved.
data_433838-ICSD
_database_code_ICSD 433838
_audit_creation_date 2021-02-01
_chemical_name_common 'Trisodium phosphide'
_chemical_formula_structural 'Na3 P'
_chemical_formula_sum 'Na3 P1'
_chemical_name_structure_type LaF3(P63cm)#Cu3P
_exptl_crystal_density_diffrn 1.76
_diffrn_ambient_temperature 296.
_citation_title

;
Sodiation and desodiation via helical phosphorus intermediates in
high-capacity anodes for sodium-ion batteries
;
loop_
_citation_id
_citation_journal_full
_citation_year
_citation_journal_volume
_citation_page_first
_citation_page_last
_citation_journal_id_ASTM
primary 'Journal of the American Chemical Society' 2018 140 7994 8004 JACSAT
loop_
_citation_author_citation_id
_citation_author_name
primary 'Marbella, Lauren E.'
primary 'Evans, Matthew L.'
primary 'Groh, Matthias F.'
primary 'Nelson, Joseph'
primary 'Griffith, Kent J.'
primary 'Morris, Andrew J.'
primary 'Grey, Clare P.'
_cell_length_a 8.61096(12)
_cell_length_b 8.61096(12)
_cell_length_c 8.81883(16)
_cell_angle_alpha 90
_cell_angle_beta 90
_cell_angle_gamma 120
_cell_volume 566.3
_cell_formula_units_Z 6
_space_group_name_H-M_alt 'P 63 c m'
_space_group_IT_number 185
loop_
_space_group_symop_id
_space_group_symop_operation_xyz
1 'x, x-y, z+1/2'
2 '-x+y, y, z+1/2'
3 '-y, -x, z+1/2'
4 'x-y, x, z+1/2'
5 'y, -x+y, z+1/2'
6 '-x, -y, z+1/2'
7 '-x, -x+y, z'
8 'x-y, -y, z'
9 'y, x, z'
10 '-x+y, -x, z'
11 '-y, x-y, z'
12 'x, y, z'
loop_
_atom_type_symbol
_atom_type_oxidation_number
Na1+ 1
P3- -3
loop_
_atom_site_label
_atom_site_type_symbol
_atom_site_symmetry_multiplicity
_atom_site_Wyckoff_symbol
_atom_site_fract_x
_atom_site_fract_y
_atom_site_fract_z
_atom_site_U_iso_or_equiv
_atom_site_occupancy
Na1 Na1+ 2 a 0 0 0.2591(11) 0.013 1
Na2 Na1+ 4 b 0.3333333 0.6666667 0.21858(80) 0.013 1
Na3 Na1+ 6 c 0.31953(68) 0 0.58862(54) 0.013 1
Na4 Na1+ 6 c 0.36209(49) 0 -0.07248(51) 0.013 1
P1 P3- 6 c 0.33616(96) 0 0.24588 0.013 1
#End of TTdata_433838-ICSD