
#(C) 2021 by FIZ Karlsruhe - Leibniz Institute for Information Infrastructure.  All rights reserved.
data_101958-ICSD
_database_code_ICSD 101958
_audit_creation_date 2021-02-01
_chemical_name_common 'Germanium lithium phosphide (3/1/3)'
_chemical_formula_structural 'Ge3 Li P3'
_chemical_formula_sum 'Ge3 Li1 P3'
_exptl_crystal_density_diffrn 3.77
_diffrn_ambient_temperature 293.
_citation_title

;
Polyanionic frameworks in the lithium phosphidogermanates Li$_2$GeP$_2$ and
LiGe$_3$P$_3$ - synthesis, structure, and lithium ion mobility
;
loop_
_citation_id
_citation_journal_full
_citation_year
_citation_journal_volume
_citation_page_first
_citation_page_last
_citation_journal_id_ASTM
primary 'Zeitschrift fuer Anorganische und Allgemeine Chemie' 2020 646 95 102
ZAACAB
loop_
_citation_author_citation_id
_citation_author_name
primary 'Eickhoff, Henrik'
primary 'Sedlmeier, Christian'
primary 'Klein, Wilhelm'
primary 'Raudaschl‐Sieber, Gabriele'
primary 'Gasteiger, Hubert A.'
primary 'Fässler, Thomas F.'
_cell_length_a 9.8397(5)
_cell_length_b 15.7838(8)
_cell_length_c 3.60618(11)
_cell_angle_alpha 90
_cell_angle_beta 90
_cell_angle_gamma 90
_cell_volume 560.07
_cell_formula_units_Z 4
_space_group_name_H-M_alt 'P b a m'
_space_group_IT_number 55
loop_
_space_group_symop_id
_space_group_symop_operation_xyz
1 'x+1/2, -y+1/2, z'
2 '-x+1/2, y+1/2, z'
3 'x, y, -z'
4 '-x, -y, -z'
5 '-x+1/2, y+1/2, -z'
6 'x+1/2, -y+1/2, -z'
7 '-x, -y, z'
8 'x, y, z'
loop_
_atom_type_symbol
_atom_type_oxidation_number
Li0+ 0
Ge0+ 0
P0+ 0
loop_
_atom_site_label
_atom_site_type_symbol
_atom_site_symmetry_multiplicity
_atom_site_Wyckoff_symbol
_atom_site_fract_x
_atom_site_fract_y
_atom_site_fract_z
_atom_site_U_iso_or_equiv
_atom_site_occupancy
Li1 Li0+ 4 h 0.7927(15) 0.0699(10) 0.5 0.040(4) 1
Ge1 Ge0+ 4 g 0.38291(7) 0.14395(4) 0. 0.01317(18) 1
Ge2 Ge0+ 4 h 0.05728(7) 0.10288(5) 0.5 0.01850(19) 1
Ge3 Ge0+ 4 h 0.14978(7) 0.25307(4) 0.5 0.01443(18) 1
P1 P0+ 4 g 0.29966(17) 0.28263(11) 0. 0.0143(3) 1
P2 P0+ 4 h 0.52703(17) 0.11824(11) 0.5 0.0131(3) 1
P3 P0+ 4 g 0.19830(18) 0.05331(11) 0. 0.0158(4) 1
loop_
_atom_site_aniso_label
_atom_site_aniso_type_symbol
_atom_site_aniso_U_11
_atom_site_aniso_U_22
_atom_site_aniso_U_33
_atom_site_aniso_U_12
_atom_site_aniso_U_13
_atom_site_aniso_U_23
Li1 Li0+ 0.027(8) 0.044(9) 0.048(9) 0.009(6) 0. 0.
Ge1 Ge0+ 0.0093(3) 0.0192(3) 0.0110(3) -0.0001(2) 0. 0.
Ge2 Ge0+ 0.0139(4) 0.0244(4) 0.0172(4) -0.0016(3) 0. 0.
Ge3 Ge0+ 0.0131(3) 0.0182(3) 0.0120(3) 0.0009(2) 0. 0.
P1 P0+ 0.0130(8) 0.0177(8) 0.0122(8) -0.0002(6) 0. 0.
P2 P0+ 0.0096(8) 0.0192(8) 0.0104(8) -0.0003(6) 0. 0.
P3 P0+ 0.0139(8) 0.0195(8) 0.0141(8) -0.0023(6) 0. 0.
#End of TTdata_101958-ICSD