
#(C) 2021 by FIZ Karlsruhe - Leibniz Institute for Information Infrastructure.  All rights reserved.
data_99177-ICSD
_database_code_ICSD 99177
_audit_creation_date 2005-04-01
_chemical_name_common 'Sodium tecto-phosphide (1/5)'
_chemical_formula_structural 'Na P5'
_chemical_formula_sum 'Na1 P5'
_exptl_crystal_density_diffrn 2.39
_citation_title

;
High-pressure synthesis and crystal structures of two new polyphosphides, Na
P5 and Ce P5
;
loop_
_citation_id
_citation_journal_full
_citation_year
_citation_journal_volume
_citation_page_first
_citation_page_last
_citation_journal_id_ASTM
primary 'Journal of Alloys and Compounds' 2004 370 110 113 JALCEU
loop_
_citation_author_citation_id
_citation_author_name
primary 'Chen Xue An'
primary 'Yamanaka, S.'
_cell_length_a 10.993(2)
_cell_length_b 6.524(1)
_cell_length_c 6.903(1)
_cell_angle_alpha 90
_cell_angle_beta 90
_cell_angle_gamma 90
_cell_volume 495.07
_cell_formula_units_Z 4
_space_group_name_H-M_alt 'P n m a'
_space_group_IT_number 62
loop_
_space_group_symop_id
_space_group_symop_operation_xyz
1 'x+1/2, y, -z+1/2'
2 'x, -y+1/2, z'
3 '-x+1/2, y+1/2, z+1/2'
4 '-x, -y, -z'
5 '-x+1/2, -y, z+1/2'
6 '-x, y+1/2, -z'
7 'x+1/2, -y+1/2, -z+1/2'
8 'x, y, z'
loop_
_atom_type_symbol
_atom_type_oxidation_number
Na1+ 1
P0+ 0
P1- -1
P0+ 0
loop_
_atom_site_label
_atom_site_type_symbol
_atom_site_symmetry_multiplicity
_atom_site_Wyckoff_symbol
_atom_site_fract_x
_atom_site_fract_y
_atom_site_fract_z
_atom_site_U_iso_or_equiv
_atom_site_occupancy
Na1 Na1+ 4 c 0.4250(1) 0.25 0.0849(3) 0.0420(6) 1.
P1 P0+ 8 d 0.08219(5) 0.01127(8) 0.09549(8) 0.0119(1) 1.
P2 P1- 4 c 0.14031(7) 0.25 0.6310(1) 0.0163(2) 1.
P3 P0+ 4 c 0.31157(7) 0.25 0.4751(1) 0.0115(1) 1.
P4 P0+ 4 c 0.68694(7) 0.25 0.5631(1) 0.0114(1) 1.
loop_
_atom_site_aniso_label
_atom_site_aniso_type_symbol
_atom_site_aniso_U_11
_atom_site_aniso_U_22
_atom_site_aniso_U_33
_atom_site_aniso_U_12
_atom_site_aniso_U_13
_atom_site_aniso_U_23
Na1 Na1+ .0189(7) .0811(17) .0260(8) 0. .0007(6) 0.
P1 P0+ .0138(2) .0076(2) .0144(2) -.0001(2) .0005(2) .0009(2)
P2 P1- .0112(3) .0224(4) .0154(3) 0. .0003(3) 0.
P3 P0+ .0127(3) .0076(3) .0143(3) 0. .0018(3) 0.
P4 P0+ .0117(3) .0073(3) .0151(3) 0. -.0004(2) 0.
#End of TTdata_99177-ICSD