
#(C) 2021 by FIZ Karlsruhe - Leibniz Institute for Information Infrastructure.  All rights reserved.
data_60078-ICSD
_database_code_ICSD 60078
_audit_creation_date 1986-04-14
_audit_update_record 2018-02-01
_chemical_name_common 'Sodium Di-!-mue-phosphido-bis(diphosphidogermanium(IV))'
_chemical_formula_structural 'Na10 Ge2 P6'
_chemical_formula_sum 'Ge2 Na10 P6'
_chemical_name_structure_type Na5GeP3
_exptl_crystal_density_diffrn 2.39
_citation_title

;
Zur Kenntnis von Oligophosphidosilikaten(IV) und -germanaten(IV): Na10Si2P6
und Na10Ge2P6
;
loop_
_citation_id
_citation_journal_full
_citation_year
_citation_journal_volume
_citation_page_first
_citation_page_last
_citation_journal_id_ASTM
primary

;
Zeitschrift fuer Naturforschung, Teil B: Anorganische Chemie, Organische
Chemie
; 1985 40 886 890 ZNBAD2
loop_
_citation_author_citation_id
_citation_author_name
primary 'Eisenmann, B.'
primary 'Somer, M.'
_cell_length_a 13.176(5)
_cell_length_b 7.364(3)
_cell_length_c 8.042(3)
_cell_angle_alpha 90.
_cell_angle_beta 90.26(7)
_cell_angle_gamma 90.
_cell_volume 780.29
_cell_formula_units_Z 2
_space_group_name_H-M_alt 'P 1 21/n 1'
_space_group_IT_number 14
loop_
_space_group_symop_id
_space_group_symop_operation_xyz
1 '-x+1/2, y+1/2, -z+1/2'
2 '-x, -y, -z'
3 'x+1/2, -y+1/2, z+1/2'
4 'x, y, z'
loop_
_atom_type_symbol
_atom_type_oxidation_number
Ge4+ 4
P3- -3
Na1+ 1
loop_
_atom_site_label
_atom_site_type_symbol
_atom_site_symmetry_multiplicity
_atom_site_Wyckoff_symbol
_atom_site_fract_x
_atom_site_fract_y
_atom_site_fract_z
_atom_site_B_iso_or_equiv
_atom_site_occupancy
Ge1 Ge4+ 4 e 0.4143 0.1423(1) 0.9274 . 1.
P1 P3- 4 e 0.4333(1) 0.8151(1) 0.9146(1) . 1.
P2 P3- 4 e 0.4198(1) 0.2616(2) 0.6566(1) . 1.
P3 P3- 4 e 0.2743(1) 0.2353(2) 0.0826(1) . 1.
Na1 Na1+ 4 e 0.2584(2) 0.4942(3) 0.8184(2) . 1.
Na2 Na1+ 4 e 0.4117(2) 0.0155(3) 0.3262(3) . 1.
Na3 Na1+ 4 e 0.5845(2) 0.4671(3) 0.8319(3) . 1.
Na4 Na1+ 4 e 0.2408(1) 0.8491(3) 0.0762(2) . 1.
Na5 Na1+ 4 e 0.4189(1) 0.6648(3) 0.5794(2) . 1.
loop_
_atom_site_aniso_label
_atom_site_aniso_type_symbol
_atom_site_aniso_U_11
_atom_site_aniso_U_22
_atom_site_aniso_U_33
_atom_site_aniso_U_12
_atom_site_aniso_U_13
_atom_site_aniso_U_23
Ge1 Ge4+ 0.0093(2) 0.0105(2) 0.0097(2) -.0001(1) 0.0008(1) 0.0002(1)
P1 P3- 0.0114(4) 0.0114(4) 0.0140(4) -.0008(3) -.0010(3) -.0006(4)
P2 P3- 0.0135(4) 0.0154(5) 0.0110(4) 0.0002(4) 0.0011(3) 0.0028(4)
P3 P3- 0.0122(4) 0.0151(5) 0.0139(4) 0.0013(4) 0.0026(3) -.0006(4)
Na1 Na1+ 0.0292(10) 0.0281(11) 0.0237(9) 0.0096(9) 0.0053(8) 0.0049(8)
Na2 Na1+ 0.0266(10) 0.024(1) 0.0268(10) 0.0041(8) 0.0025(8) 0.0014(8)
Na3 Na1+ 0.0380(12) 0.0299(11) 0.028(1) -.0153(10) -.0107(9) 0.0088(9)
Na4 Na1+ 0.0205(9) 0.0231(9) 0.0177(8) -.0021(7) 0.0027(7) 0.0004(7)
Na5 Na1+ 0.0186(8) 0.0268(10) 0.0197(8) -.0009(8) 0.0023(7) 0.0002(8)
#End of TTdata_60078-ICSD