
#(C) 2021 by FIZ Karlsruhe - Leibniz Institute for Information Infrastructure.  All rights reserved.
data_38349-ICSD
_database_code_ICSD 38349
_audit_creation_date 1984-12-31
_audit_update_record 2013-02-01
_chemical_name_common 'Disodium pentasulfide - alpha'
_chemical_formula_structural 'Na2 S5'
_chemical_formula_sum 'Na2 S5'
_exptl_crystal_density_diffrn 2.11
_citation_title 'Die Kristallstruktur des alpha-Na2 S5'
loop_
_citation_id
_citation_journal_full
_citation_year
_citation_journal_volume
_citation_page_first
_citation_page_last
_citation_journal_id_ASTM
primary

;
Zeitschrift fuer Naturforschung, Teil B: Anorganische Chemie, Organische
Chemie
; 1984 39 577 581 ZNBAD2
loop_
_citation_author_citation_id
_citation_author_name
primary 'Boettcher, P.'
primary 'Keller, R.'
_cell_length_a 7.654(6)
_cell_length_b 14.51(1)
_cell_length_c 5.846(3)
_cell_angle_alpha 90.
_cell_angle_beta 90.
_cell_angle_gamma 90.
_cell_volume 649.25
_cell_formula_units_Z 4
_space_group_name_H-M_alt 'P n m a'
_space_group_IT_number 62
loop_
_space_group_symop_id
_space_group_symop_operation_xyz
1 'x+1/2, y, -z+1/2'
2 'x, -y+1/2, z'
3 '-x+1/2, y+1/2, z+1/2'
4 '-x, -y, -z'
5 '-x+1/2, -y, z+1/2'
6 '-x, y+1/2, -z'
7 'x+1/2, -y+1/2, -z+1/2'
8 'x, y, z'
loop_
_atom_type_symbol
_atom_type_oxidation_number
S1- -1
S0+ 0
Na1+ 1
loop_
_atom_site_label
_atom_site_type_symbol
_atom_site_symmetry_multiplicity
_atom_site_Wyckoff_symbol
_atom_site_fract_x
_atom_site_fract_y
_atom_site_fract_z
_atom_site_B_iso_or_equiv
_atom_site_occupancy
S1 S1- 8 d 0.29771(17) 0.10248(9) -.16313(24) . 1.
S2 S0+ 8 d 0.45747(17) 0.13475(9) 0.10922(25) . 1.
S3 S0+ 4 c 0.35341(26) 0.25 0.26582(39) . 1.
Na1 Na1+ 4 a 0 0 0 . 1.
Na2 Na1+ 4 c 0.05399(39) 0.25 0.80262(54) . 1.
loop_
_atom_site_aniso_label
_atom_site_aniso_type_symbol
_atom_site_aniso_U_11
_atom_site_aniso_U_22
_atom_site_aniso_U_33
_atom_site_aniso_U_12
_atom_site_aniso_U_13
_atom_site_aniso_U_23
S1 S1- 0.0245(7) 0.0249(6) 0.0300(7) -.0020(8) -.0001(9) -.0046(8)
S2 S0+ 0.0274(7) 0.0207(6) 0.0298(7) 0.0038(8) -.0033(8) 0.0012(8)
S3 S0+ 0.026(1) 0.0247(9) 0.024(1) 0 0.004(1) 0
Na1 Na1+ 0.035(2) 0.032(2) 0.037(2) -.005(2) -.001(2) 0.003(2)
Na2 Na1+ 0.033(2) 0.030(1) 0.034(2) 0 -.001(2) 0
#End of TTdata_38349-ICSD