
#(C) 2021 by FIZ Karlsruhe - Leibniz Institute for Information Infrastructure.  All rights reserved.
data_1947-ICSD
_database_code_ICSD 1947
_audit_creation_date 1980-01-01
_audit_update_record 2012-02-01
_chemical_name_common 'Germanium sulfide - HT'
_chemical_formula_structural 'Ge S2'
_chemical_formula_sum 'Ge1 S2'
_chemical_name_structure_type GeS2(HT)
_exptl_crystal_density_diffrn 2.94
_citation_title 'Die Kristallstruktur von H.T.-Ge S2'
loop_
_citation_id
_citation_journal_full
_citation_year
_citation_journal_volume
_citation_page_first
_citation_page_last
_citation_journal_id_ASTM
primary

;
Acta Crystallographica, Section B: Structural Crystallography and Crystal
Chemistry
; 1975 31 2060 2064 ACBCAR
loop_
_citation_author_citation_id
_citation_author_name
primary 'Dittmar, G.'
primary 'Schaefer, H.'
_cell_length_a 6.720(3)
_cell_length_b 16.101(3)
_cell_length_c 11.436(3)
_cell_angle_alpha 90.
_cell_angle_beta 90.88(5)
_cell_angle_gamma 90.
_cell_volume 1237.21
_cell_formula_units_Z 16
_space_group_name_H-M_alt 'P 1 21/c 1'
_space_group_IT_number 14
loop_
_space_group_symop_id
_space_group_symop_operation_xyz
1 'x, -y+1/2, z+1/2'
2 '-x, -y, -z'
3 '-x, y+1/2, -z+1/2'
4 'x, y, z'
loop_
_atom_type_symbol
_atom_type_oxidation_number
Ge4+ 4
S2- -2
loop_
_atom_site_label
_atom_site_type_symbol
_atom_site_symmetry_multiplicity
_atom_site_Wyckoff_symbol
_atom_site_fract_x
_atom_site_fract_y
_atom_site_fract_z
_atom_site_B_iso_or_equiv
_atom_site_occupancy
Ge1 Ge4+ 4 e 0.3430(2) 0.1531(1) 0.2213(1) . 1.
Ge2 Ge4+ 4 e 0.1714(1) 0.1514(1) 0.7798(1) . 1.
Ge3 Ge4+ 4 e 0.8396(2) 0.0026(1) 0.7057(1) . 1.
Ge4 Ge4+ 4 e 0.6734(1) 0.3073(1) 0.2777(1) . 1.
S1 S2- 4 e 0.6687(4) 0.1773(2) 0.2141(3) . 1.
S2 S2- 4 e 0.2790(4) 0.0370(2) 0.1226(2) . 1.
S3 S2- 4 e 0.2292(5) 0.1126(2) 0.3933(2) . 1.
S4 S2- 4 e 0.1726(4) 0.2564(2) 0.1369(2) . 1.
S5 S2- 4 e 0.4272(4) 0.3319(2) 0.4000(2) . 1.
S6 S2- 4 e 0.9211(4) 0.3316(2) 0.4020(2) . 1.
S7 S2- 4 e 0.6767(4) 0.3909(2) 0.1236(2) . 1.
S8 S2- 4 e 0.1661(4) 0.4745(2) 0.2011(3) . 1.
loop_
_atom_site_aniso_label
_atom_site_aniso_type_symbol
_atom_site_aniso_U_11
_atom_site_aniso_U_22
_atom_site_aniso_U_33
_atom_site_aniso_U_12
_atom_site_aniso_U_13
_atom_site_aniso_U_23
Ge1 Ge4+ 0.0167(5) 0.0016(5) 0.0283(6) -0.0027(4) 0.0016(4) 0.0003(4)
Ge2 Ge4+ 0.0082(5) 0.0057(5) 0.0296(7) -0.0009(4) 0.0013(4) 0.0011(4)
Ge3 Ge4+ 0.0177(5) 0.0022(5) 0.0278(6) -0.0031(4) 0.0026(4) -0.003(4)
Ge4 Ge4+ 0.0088(5) 0.0053(5) 0.0289(6) -0.0006(4) 0.0009(4) -0.0004(4)
S1 S2- 0.0160(13) 0.0048(11) 0.0605(22) 0.0004(10) 0.0041(13) -0.0064(12)
S2 S2- 0.0320(14) 0.0060(11) 0.0266(15) -0.0062(10) 0.0061(11) -0.0031(9)
S3 S2- 0.0372(16) 0.0082(11) 0.0266(15) -0.0066(11) 0.0051(12) -0.0045(10)
S4 S2- 0.0285(14) 0.0081(11) 0.0301(15) -0.0019(10) -0.0026(11) 0.0049(10)
S5 S2- 0.0098(12) 0.0238(14) 0.0282(16) 0.0019(10) 0.0017(10) -0.0024(11)
S6 S2- 0.0121(12) 0.0205(13) 0.0267(15) 0.0002(10) 0.0008(10) 0.0017(10)
S7 S2- 0.0290(14) 0.0094(11) 0.0253(14) -0.0051(10) -0.0038(11) -0.0008(10)
S8 S2- 0.0170(12) 0.0054(11) 0.0532(19) 0.0001(10) 0.0069(12) 0.0039(11)
#End of TTdata_1947-ICSD