
#(C) 2021 by FIZ Karlsruhe - Leibniz Institute for Information Infrastructure.  All rights reserved.
data_14009-ICSD
_database_code_ICSD 14009
_audit_creation_date 1980-01-01
_audit_update_record 2011-02-01
_chemical_name_common 'Sodium phosphide (1/1)'
_chemical_formula_structural 'Na P'
_chemical_formula_sum 'Na1 P1'
_chemical_name_structure_type NaP
_exptl_crystal_density_diffrn 2.07
_citation_title

;
Darstellung, Struktur und Eigenschaften der Alkalimetallmonophosphide Na P und
K P
;
loop_
_citation_id
_citation_journal_full
_citation_year
_citation_journal_volume
_citation_page_first
_citation_page_last
_citation_journal_id_ASTM
primary 'Zeitschrift fuer Anorganische und Allgemeine Chemie (1950) (DE)' 1979
456 194 206 ZAACAB
loop_
_citation_author_citation_id
_citation_author_name
primary 'von Schnering, H.G.'
primary 'Hoenle, W.'
_cell_length_a 6.038(1)
_cell_length_b 5.643(1)
_cell_length_c 10.142(2)
_cell_angle_alpha 90.
_cell_angle_beta 90.
_cell_angle_gamma 90.
_cell_volume 345.56
_cell_formula_units_Z 8
_space_group_name_H-M_alt 'P 21 21 21'
_space_group_IT_number 19
loop_
_space_group_symop_id
_space_group_symop_operation_xyz
1 '-x, y+1/2, -z+1/2'
2 'x+1/2, -y+1/2, -z'
3 '-x+1/2, -y, z+1/2'
4 'x, y, z'
loop_
_atom_type_symbol
_atom_type_oxidation_number
Na1+ 1
P1- -1
loop_
_atom_site_label
_atom_site_type_symbol
_atom_site_symmetry_multiplicity
_atom_site_Wyckoff_symbol
_atom_site_fract_x
_atom_site_fract_y
_atom_site_fract_z
_atom_site_B_iso_or_equiv
_atom_site_occupancy
Na1 Na1+ 4 a 0.4174(11) 0.9089(11) 0.0318(5) . 1.
Na2 Na1+ 4 a 0.1338(6) 0.6367(8) 0.3313(3) . 1.
P1 P1- 4 a 0.3086(9) 0.1404(12) 0.2838(5) . 1.
P2 P1- 4 a 0.4287(7) 0.4020(8) 0.1341(3) . 1.
loop_
_atom_site_aniso_label
_atom_site_aniso_type_symbol
_atom_site_aniso_beta_11
_atom_site_aniso_beta_22
_atom_site_aniso_beta_33
_atom_site_aniso_beta_12
_atom_site_aniso_beta_13
_atom_site_aniso_beta_23
Na1 Na1+ 0.0308(23) 0.0178(26) 0.0052(6) 0.0026(28) -.0068(13) 0.0003(15)
Na2 Na1+ 0.0132(18) 0.0271(27) 0.0055(6) -.0033(24) -.0006(9) -.0014(13)
P1 P1- 0.0068(11) 0.0064(16) 0.0031(4) -.0024(13) 0.0003(7) 0.0000(8)
P2 P1- 0.0117(13) 0.0091(19) 0.0020(4) 0.0040(15) -.0003(7) 0.0004(8)
#End of TTdata_14009-ICSD