
#(C) 2021 by FIZ Karlsruhe - Leibniz Institute for Information Infrastructure.  All rights reserved.
data_97205-ICSD
_database_code_ICSD 97205
_audit_creation_date 2004-10-01
_audit_update_record 2006-04-01
_chemical_name_common 'Trisodium phosphate(V) - alpha'
_chemical_formula_structural 'Na3 (P O4)'
_chemical_formula_sum 'Na3 O4 P1'
_chemical_name_structure_type Na3PO4(tP64)
_exptl_crystal_density_diffrn 2.73
_citation_title

;
Phase transition behaviour and equilibrium phase relations in the fast-ion
conductor system (Na3 P O4) - (Na2 S O4)
;
loop_
_citation_id
_citation_journal_full
_citation_year
_citation_journal_volume
_citation_page_first
_citation_page_last
_citation_journal_id_ASTM
primary 'Physical Chemistry Chemical Physics' 2002 4 3252 3259 PPCPFQ
loop_
_citation_author_citation_id
_citation_author_name
primary 'Harrison, R.J.'
primary 'Putnis, A.'
primary 'Kockelmann, W.'
_cell_length_a 10.81111(34)
_cell_length_b 10.81111(34)
_cell_length_c 6.81831(34)
_cell_angle_alpha 90
_cell_angle_beta 90
_cell_angle_gamma 90
_cell_volume 796.92
_cell_formula_units_Z 8
_space_group_name_H-M_alt 'P -4 21 c'
_space_group_IT_number 114
loop_
_space_group_symop_id
_space_group_symop_operation_xyz
1 'y+1/2, x+1/2, z+1/2'
2 'y, -x, -z'
3 '-y+1/2, -x+1/2, z+1/2'
4 '-y, x, -z'
5 'x+1/2, -y+1/2, -z+1/2'
6 '-x, -y, z'
7 '-x+1/2, y+1/2, -z+1/2'
8 'x, y, z'
loop_
_atom_type_symbol
_atom_type_oxidation_number
P5+ 5
O2- -2
Na1+ 1
loop_
_atom_site_label
_atom_site_type_symbol
_atom_site_symmetry_multiplicity
_atom_site_Wyckoff_symbol
_atom_site_fract_x
_atom_site_fract_y
_atom_site_fract_z
_atom_site_U_iso_or_equiv
_atom_site_occupancy
P1 P5+ 8 e 0.2592(6) -0.0124(5) 0.2231(7) 0.0163(15) 1.
O1 O2- 8 e 0.1642(6) -0.0750(6) 0.3512(7) 0.0212(10) 1.
O2 O2- 8 e 0.3768(5) -0.0993(5) 0.2049(6) 0.0212(10) 1.
O3 O2- 8 e 0.2074(4) 0.0162(5) 0.0235(7) 0.0212(10) 1.
O4 O2- 8 e 0.3050(4) 0.1043(5) 0.3288(9) 0.0212(10) 1.
Na1 Na1+ 8 e 0.2556(9) 0.0330(7) 0.6962(14) 0.0293(16) 1.
Na2 Na1+ 8 e 0.2229(9) 0.2405(8) 0.0424(14) 0.0293(16) 1.
Na3 Na1+ 2 a 0 0 0 0.0293(16) 1.
Na4 Na1+ 2 b 0 0 0.5 0.0293(16) 1.
Na5 Na1+ 4 d 0 0.5 0.0477(20) 0.0293(16) 1.
#End of TTdata_97205-ICSD