
#(C) 2021 by FIZ Karlsruhe - Leibniz Institute for Information Infrastructure.  All rights reserved.
data_193521-ICSD
_database_code_ICSD 193521
_audit_creation_date 2015-08-01
_chemical_name_common 'Sodium germanide (4/4)'
_chemical_formula_structural 'Na4 Ge4'
_chemical_formula_sum 'Ge4 Na4'
_chemical_name_structure_type Na4Ge4
_exptl_crystal_density_diffrn 3.11
_diffrn_ambient_temperature 293.
_citation_title

;
Crystal structure analysis of Na4 Si4-x Gex by single crystal X-ray
diffraction
;
loop_
_citation_id
_citation_journal_full
_citation_year
_citation_journal_volume
_citation_page_first
_citation_page_last
_citation_journal_id_ASTM
primary 'Journal of Alloys and Compounds' 2015 623 473 479 JALCEU
loop_
_citation_author_citation_id
_citation_author_name
primary 'Morito, Haruhiko'
primary 'Momma, Kenji'
primary 'Yamane, Hisanori'
_cell_length_a 12.3625(5)
_cell_length_b 6.6586(3)
_cell_length_c 11.4783(7)
_cell_angle_alpha 90.
_cell_angle_beta 120.225(4)
_cell_angle_gamma 90.
_cell_volume 816.41
_cell_formula_units_Z 4
_space_group_name_H-M_alt 'P 1 21/c 1'
_space_group_IT_number 14
loop_
_space_group_symop_id
_space_group_symop_operation_xyz
1 'x, -y+1/2, z+1/2'
2 '-x, -y, -z'
3 '-x, y+1/2, -z+1/2'
4 'x, y, z'
loop_
_atom_type_symbol
_atom_type_oxidation_number
Na0+ 0
Ge0+ 0
loop_
_atom_site_label
_atom_site_type_symbol
_atom_site_symmetry_multiplicity
_atom_site_Wyckoff_symbol
_atom_site_fract_x
_atom_site_fract_y
_atom_site_fract_z
_atom_site_U_iso_or_equiv
_atom_site_occupancy
Na1 Na0+ 4 e 0.0961(2) 0.9373(4) 0.8634(2) 0.0452(6) 1.
Na2 Na0+ 4 e 0.6061(2) 0.3490(4) 0.8676(2) 0.0455(6) 1.
Na3 Na0+ 4 e 0.1366(2) 0.1446(3) 0.5897(2) 0.0485(6) 1.
Na4 Na0+ 4 e 0.6048(2) 0.6848(3) 0.5056(2) 0.0449(6) 1.
Ge1 Ge0+ 4 e 0.19220(5) 0.47703(8) 0.84468(5) 0.0296(2) 1.
Ge2 Ge0+ 4 e 0.32359(6) 0.46341(8) 0.72554(6) 0.0371(2) 1.
Ge3 Ge0+ 4 e 0.12774(5) 0.68435(8) 0.63381(5) 0.0319(2) 1.
Ge4 Ge0+ 4 e 0.32481(5) 0.78107(9) 0.84967(5) 0.0357(2) 1.
loop_
_atom_site_aniso_label
_atom_site_aniso_type_symbol
_atom_site_aniso_U_11
_atom_site_aniso_U_22
_atom_site_aniso_U_33
_atom_site_aniso_U_12
_atom_site_aniso_U_13
_atom_site_aniso_U_23
Na1 Na0+ 0.0352(13) 0.0639(15) 0.0385(12) 0.0084(11) 0.0201(10) 0.0003(11)
Na2 Na0+ 0.0444(14) 0.0617(14) 0.0279(11) 0.0014(12) 0.0163(10) -0.0077(10)
Na3 Na0+ 0.0457(14) 0.0431(12) 0.0490(14) -0.0026(11) 0.0180(11) 0.0000(11)
Na4 Na0+ 0.0359(13) 0.0413(12) 0.0501(13) -0.0080(10) 0.0163(11) -0.0035(10)
Ge1 Ge0+ 0.0289(3) 0.0348(2) 0.0260(3) 0.0009(2) 0.0146(2) 0.0072(2)
Ge2 Ge0+ 0.0409(3) 0.0324(3) 0.0500(4) 0.0052(3) 0.0318(3) 0.0001(2)
Ge3 Ge0+ 0.0268(3) 0.0402(3) 0.0215(3) 0.0022(2) 0.0070(2) 0.0075(2)
Ge4 Ge0+ 0.0337(3) 0.0460(3) 0.0279(3) -0.0155(3) 0.0158(3) -0.0139(2)
#End of TTdata_193521-ICSD