
#(C) 2021 by FIZ Karlsruhe - Leibniz Institute for Information Infrastructure.  All rights reserved.
data_235184-ICSD
_database_code_ICSD 235184
_audit_creation_date 2020-02-01
_chemical_name_common 'Alpha-octalithium tetraphosphidogermanate'
_chemical_formula_structural 'Li8 Ge P4'
_chemical_formula_sum 'Ge1 Li8 P4'
_exptl_crystal_density_diffrn 2.04
_diffrn_ambient_temperature 293.
_citation_title

;
Lithium phosphidogermanates alpha- and beta-Li8GeP4. A novel compound class
with mixed Li+ ionic and electronic conductivity
;
loop_
_citation_id
_citation_journal_full
_citation_year
_citation_journal_volume
_citation_page_first
_citation_page_last
_citation_journal_id_ASTM
primary 'Chemistry of Materials' 2018 30 6440 6448 CMATEX
loop_
_citation_author_citation_id
_citation_author_name
primary 'Eickhoff, Henrik'
primary 'Strangmueller, Stefan'
primary 'Klein, Wilhelm'
primary 'Kirchhain, Holger'
primary 'Dietrich, Christian'
primary 'Zeier, Wolfgang G.'
primary 'Wuellen, Leo van'
primary 'Faessler, Thomas F.'
_cell_length_a 11.80203(7)
_cell_length_b 11.80203(7)
_cell_length_c 11.80203(7)
_cell_angle_alpha 90.
_cell_angle_beta 90.
_cell_angle_gamma 90.
_cell_volume 1643.86
_cell_formula_units_Z 8
_space_group_name_H-M_alt 'P a -3'
_space_group_IT_number 205
loop_
_space_group_symop_id
_space_group_symop_operation_xyz
1 '-z+1/2, x+1/2, y'
2 'z+1/2, x, -y+1/2'
3 'z, -x+1/2, y+1/2'
4 '-z, -x, -y'
5 'y, -z+1/2, x+1/2'
6 '-y+1/2, z+1/2, x'
7 'y+1/2, z, -x+1/2'
8 '-y, -z, -x'
9 'x+1/2, y, -z+1/2'
10 'x, -y+1/2, z+1/2'
11 '-x+1/2, y+1/2, z'
12 '-x, -y, -z'
13 'z+1/2, -x+1/2, -y'
14 '-z+1/2, -x, y+1/2'
15 '-z, x+1/2, -y+1/2'
16 'z, x, y'
17 '-y, z+1/2, -x+1/2'
18 'y+1/2, -z+1/2, -x'
19 '-y+1/2, -z, x+1/2'
20 'y, z, x'
21 '-x+1/2, -y, z+1/2'
22 '-x, y+1/2, -z+1/2'
23 'x+1/2, -y+1/2, -z'
24 'x, y, z'
loop_
_atom_type_symbol
_atom_type_oxidation_number
Li1+ 1
Ge4+ 4
P3- -3
loop_
_atom_site_label
_atom_site_type_symbol
_atom_site_symmetry_multiplicity
_atom_site_Wyckoff_symbol
_atom_site_fract_x
_atom_site_fract_y
_atom_site_fract_z
_atom_site_U_iso_or_equiv
_atom_site_occupancy
Li1 Li1+ 8 c 0.3861(11) 0.3861(11) 0.3861(11) 0.0273(14) 1.
Li2 Li1+ 24 d 0.3878(12) 0.1367(15) 0.1259(13) 0.0273(14) 1.
Li3 Li1+ 24 d 0.3766(18) 0.3790(14) 0.1126(11) 0.0273(14) 1.
Li4 Li1+ 4 a 0. 0. 0. 0.0273(14) 1.
Li5 Li1+ 4 b 0.5 0.5 0.5 0.0273(14) 1.
Ge1 Ge4+ 8 c 0.12723(14) 0.12723(14) 0.12723(14) 0.0239(3) 1.
P1 P3- 8 c 0.2437(4) 0.2437(4) 0.2437(4) 0.031(2) 1.
P2 P3- 24 d 0.0062(3) 0.24388(15) 0.01346(11) 0.0198(7) 1.
#End of TTdata_235184-ICSD