
#(C) 2021 by FIZ Karlsruhe - Leibniz Institute for Information Infrastructure.  All rights reserved.
data_239084-ICSD
_database_code_ICSD 239084
_audit_creation_date 2016-08-01
_chemical_name_common 'Sodium phosphide (1/15)'
_chemical_formula_structural 'Na1 P15'
_chemical_formula_sum 'Na1 P15'
_chemical_name_structure_type AgP15
_exptl_crystal_density_diffrn 2.38
_diffrn_ambient_temperature 293.
_citation_title 'One-dimensional [P15]- tubes in layered semiconducting AgP15'
loop_
_citation_id
_citation_journal_full
_citation_year
_citation_journal_volume
_citation_page_first
_citation_page_last
_citation_journal_id_ASTM
primary 'Inorganic Chemistry' 2015 54 10794 10800 INOCAJ
loop_
_citation_author_citation_id
_citation_author_name
primary 'Grotz, Carolin'
primary 'Schaafer, Konrad'
primary 'Baumgartner, Maximilian'
primary 'Weihrich, Richard'
primary 'Nilges, Tom'
_cell_length_a 6.9727(8)
_cell_length_b 9.0672(10)
_cell_length_c 11.4869(13)
_cell_angle_alpha 92.377(9)
_cell_angle_beta 99.832(9)
_cell_angle_gamma 106.857(8)
_cell_volume 681.62
_cell_formula_units_Z 2
_space_group_name_H-M_alt 'P -1'
_space_group_IT_number 2
loop_
_space_group_symop_id
_space_group_symop_operation_xyz
1 '-x, -y, -z'
2 'x, y, z'
loop_
_atom_type_symbol
_atom_type_oxidation_number
Na0+ 0
P0+ 0
loop_
_atom_site_label
_atom_site_type_symbol
_atom_site_symmetry_multiplicity
_atom_site_Wyckoff_symbol
_atom_site_fract_x
_atom_site_fract_y
_atom_site_fract_z
_atom_site_U_iso_or_equiv
_atom_site_occupancy
Na1 Na0+ 2 i 0.21184(14) 0.20992(10) 0.99976(8) 0.0369(3) 1
P1 P0+ 2 i 0.33981(6) 0.68792(5) 0.43472(4) 0.01551(12) 1
P2 P0+ 2 i 0.28896(6) 0.86701(5) 0.16840(4) 0.01749(13) 1
P3 P0+ 2 i 0.65409(7) 0.19474(5) 0.14694(4) 0.01837(13) 1
P4 P0+ 2 i 0.25910(7) 0.48128(5) 0.17160(4) 0.01755(13) 1
P5 P0+ 2 i 0.46886(6) 0.08302(5) 0.27662(4) 0.01750(13) 1
P6 P0+ 2 i 0.49498(7) 0.71785(5) 0.17306(4) 0.01758(13) 1
P7 P0+ 2 i 0.01903(6) 0.44196(5) 0.83412(4) 0.01736(13) 1
P8 P0+ 2 i 0.98210(6) 0.09854(5) 0.34138(4) 0.01723(13) 1
P9 P0+ 2 i 0.78844(6) 0.40774(5) 0.27215(4) 0.01745(13) 1
P10 P0+ 2 i 0.10875(6) 0.75963(5) 0.29935(4) 0.01680(13) 1
P11 P0+ 2 i 0.37463(6) 0.23813(5) 0.63376(4) 0.01567(12) 1
P12 P0+ 2 i 0.89352(7) 0.08763(5) 0.15060(4) 0.02090(14) 1
P13 P0+ 2 i 0.31346(6) 0.45219(5) 0.36453(4) 0.01541(12) 1
P14 P0+ 2 i 0.01380(6) 0.33974(5) 0.40657(4) 0.01602(12) 1
P15 P0+ 2 i 0.69361(6) 0.01183(5) 0.40899(4) 0.01642(12) 1
loop_
_atom_site_aniso_label
_atom_site_aniso_type_symbol
_atom_site_aniso_U_11
_atom_site_aniso_U_22
_atom_site_aniso_U_33
_atom_site_aniso_U_12
_atom_site_aniso_U_13
_atom_site_aniso_U_23
Na1 Na0+ 0.0433(5) 0.0303(5) 0.0367(4) 0.0057(4) 0.0179(4) -0.0041(4)
P1 P0+ 0.01608(19) 0.01302(19) 0.01561(18) 0.00030(15) 0.00530(15) 0.00111(15)
P2 P0+ 0.01560(19) 0.0140(2) 0.01985(19) 0.00022(15) 0.00202(16) 0.00440(16)
P3 P0+ 0.01620(19) 0.0148(2) 0.0205(2) 0.00015(15) 0.00122(16) 0.00395(16)
P4 P0+ 0.0183(2) 0.0138(2) 0.01923(19) 0.00141(16) 0.00672(16) -0.00134(15)
P5 P0+ 0.01389(19) 0.01163(19) 0.0259(2) 0.00132(15) 0.00526(16) 0.00211(16)
P6 P0+ 0.01750(19) 0.0158(2) 0.01909(19) 0.00149(16) 0.00873(16) 0.00138(16)
P7 P0+ 0.01494(19) 0.0136(2) 0.02027(19) 0.00018(15) 0.00126(15) 0.00357(16)
P8 P0+ 0.01390(19) 0.01214(19) 0.0246(2) 0.00221(15) 0.00348(16) 0.00325(16)
P9 P0+ 0.01362(19) 0.01193(19) 0.0268(2) 0.00228(15) 0.00641(16) 0.00321(16)
P10 P0+ 0.01383(18) 0.01200(19) 0.0249(2) 0.00282(15) 0.00639(16) 0.00201(16)
P11 P0+ 0.01248(18) 0.01216(19) 0.0210(2) 0.00109(15) 0.00391(15) 0.00294(15)
P12 P0+ 0.0216(2) 0.0190(2) 0.0223(2) 0.00429(17) 0.00857(17) -0.00064(17)
P13 P0+ 0.01294(18) 0.01180(19) 0.02061(19) 0.00202(14) 0.00359(15) 0.00259(15)
P14 P0+ 0.01516(19) 0.01271(19) 0.01813(19) -0.00014(15) 0.00513(15) 0.00186(15)
P15 P0+ 0.01689(19) 0.01170(19) 0.01788(19) -0.00045(15) 0.00414(15) 0.00135(15)
#End of TTdata_239084-ICSD