
#(C) 2021 by FIZ Karlsruhe - Leibniz Institute for Information Infrastructure.  All rights reserved.
data_653637-ICSD
_database_code_ICSD 653637
_audit_creation_date 2008-07-07
_audit_update_record 2018-08-01
_chemical_name_common 'Disodium trithiogermanate'
_chemical_formula_structural 'Ge Na2 S3'
_chemical_formula_sum 'Ge1 Na2 S3'
_chemical_name_structure_type Na2GeS3
_exptl_crystal_density_diffrn 2.6
_citation_title

;
Etude structurale d'un thiogermanate de sodium a chaines infinies (Na2GeS3)n
caracterisation dans le binaire Na2S-GeS2
;
loop_
_citation_id
_citation_journal_full
_citation_year
_citation_journal_volume
_citation_page_first
_citation_page_last
_citation_journal_id_ASTM
primary 'Revue de Chimie Minerale' 1972 9 757 770 RVCMA8
loop_
_citation_author_citation_id
_citation_author_name
primary 'Olivier-Fourcade, Josette'
primary 'Philippot, Etienne'
primary 'Ribes, Michel'
primary 'Maurin, Maurice'
_cell_length_a 6.952(7)
_cell_length_b 15.230(9)
_cell_length_c 5.720(5)
_cell_angle_alpha 90.
_cell_angle_beta 115.24
_cell_angle_gamma 90.
_cell_volume 547.81
_cell_formula_units_Z 4
_space_group_name_H-M_alt 'P 1 21/c 1'
_space_group_IT_number 14
loop_
_space_group_symop_id
_space_group_symop_operation_xyz
1 'x, -y+1/2, z+1/2'
2 '-x, -y, -z'
3 '-x, y+1/2, -z+1/2'
4 'x, y, z'
loop_
_atom_type_symbol
_atom_type_oxidation_number
Ge4+ 4
Na1+ 1
S2- -2
loop_
_atom_site_label
_atom_site_type_symbol
_atom_site_symmetry_multiplicity
_atom_site_Wyckoff_symbol
_atom_site_fract_x
_atom_site_fract_y
_atom_site_fract_z
_atom_site_B_iso_or_equiv
_atom_site_occupancy
Ge1 Ge4+ 4 e 0.0387(2) 0.1714(1) 0.3450(3) . 1
Na1 Na1+ 4 e 0.7801(9) 0.4685(4) 0.1650(13) . 1
Na2 Na1+ 4 e 0.4435(11) 0.3361(5) 0.4793(14) . 1
S1 S2- 4 e 0.8202(5) 0.0655(2) 0.1680(7) . 1
S2 S2- 4 e 0.9619(5) 0.3061(2) 0.1840(7) . 1
S3 S2- 4 e 0.3731(4) 0.1449(2) 0.4455(7) . 1
loop_
_atom_site_aniso_label
_atom_site_aniso_type_symbol
_atom_site_aniso_U_11
_atom_site_aniso_U_22
_atom_site_aniso_U_33
_atom_site_aniso_U_12
_atom_site_aniso_U_13
_atom_site_aniso_U_23
Ge1 Ge4+ .024(1) .028(1) .031(1) 0 .015(1) -.001(1)
Na1 Na1+ .039(2) .041(3) .041(3) -.004(2) .022(3) -.002(3)
Na2 Na1+ .051(2) .063(4) .046(3) -.015(3) .025(3) .001(3)
S1 S2- .026(1) .028(1) .034(2) -.004(2) .015(1) -.005(1)
S2 S2- .044(1) .030(2) .040(2) .008(1) .027(2) .007(1)
S3 S2- .022(1) .032(2) .034(2) .002(1) .015(1) .002(1)
#End of TTdata_653637-ICSD