
#(C) 2021 by FIZ Karlsruhe - Leibniz Institute for Information Infrastructure.  All rights reserved.
data_23621-ICSD
_database_code_ICSD 23621
_audit_creation_date 1980-01-01
_audit_update_record 2011-08-01
_chemical_name_common 'Lithium phosphide (1/7)'
_chemical_formula_structural 'Li P7'
_chemical_formula_sum 'Li1 P7'
_chemical_name_structure_type LiP7
_exptl_crystal_density_diffrn 2.25
_citation_title

;
Die Lithiumphosphide Li P5 und Li P7. Zur Chemie und Strukturchemie der
Phosphide und Polyphosphide, 4
;
loop_
_citation_id
_citation_journal_full
_citation_year
_citation_journal_volume
_citation_page_first
_citation_page_last
_citation_journal_id_ASTM
primary Naturwissenschaften 1972 59 78 79 NATWAY
loop_
_citation_author_citation_id
_citation_author_name
primary 'von Schnering, H.G.'
primary 'Wichelhaus, W.'
_cell_length_a 13.417
_cell_length_b 13.417
_cell_length_c 14.649
_cell_angle_alpha 90.
_cell_angle_beta 90.
_cell_angle_gamma 90.
_cell_volume 2637.05
_cell_formula_units_Z 16
_space_group_name_H-M_alt 'I 41/a c d Z'
_space_group_IT_number 142
loop_
_space_group_symop_id
_space_group_symop_operation_xyz
1 'y+1/4, x+3/4, -z+3/4'
2 '-y+3/4, x+3/4, -z+1/4'
3 'x, y+1/2, -z'
4 '-x, y+1/2, -z+1/2'
5 '-y+3/4, -x+1/4, z+1/4'
6 'y+1/4, -x+1/4, z+3/4'
7 '-x, -y+1/2, z'
8 'x, -y+1/2, z+1/2'
9 'y+1/4, -x+3/4, -z+1/4'
10 '-y+3/4, -x+3/4, -z+3/4'
11 'x, -y, -z+1/2'
12 '-x, -y, -z'
13 '-y+3/4, x+1/4, z+3/4'
14 'y+1/4, x+1/4, z+1/4'
15 '-x, y, z+1/2'
16 'x, y, z'
17 'y+3/4, x+1/4, -z+1/4'
18 '-y+1/4, x+1/4, -z+3/4'
19 'x+1/2, y, -z+1/2'
20 '-x+1/2, y, -z'
21 '-y+1/4, -x+3/4, z+3/4'
22 'y+3/4, -x+3/4, z+1/4'
23 '-x+1/2, -y, z+1/2'
24 'x+1/2, -y, z'
25 'y+3/4, -x+1/4, -z+3/4'
26 '-y+1/4, -x+1/4, -z+1/4'
27 'x+1/2, -y+1/2, -z'
28 '-x+1/2, -y+1/2, -z+1/2'
29 '-y+1/4, x+3/4, z+1/4'
30 'y+3/4, x+3/4, z+3/4'
31 '-x+1/2, y+1/2, z'
32 'x+1/2, y+1/2, z+1/2'
loop_
_atom_type_symbol
_atom_type_oxidation_number
Li0+ 0
P0+ 0
loop_
_atom_site_label
_atom_site_type_symbol
_atom_site_symmetry_multiplicity
_atom_site_Wyckoff_symbol
_atom_site_fract_x
_atom_site_fract_y
_atom_site_fract_z
_atom_site_B_iso_or_equiv
_atom_site_occupancy
Li1 Li0+ 16 f 0.3708 0.6208 0.125 . 1.
P1 P0+ 32 g 0.1778 0.4541 0.9636 . 1.
P2 P0+ 32 g 0.1858 0.3079 0.8971 . 1.
P3 P0+ 32 g 0.4248 0.4185 0.9236 . 1.
P4 P0+ 16 e 0.0429 0 0.25 . 1.
#End of TTdata_23621-ICSD