
#(C) 2021 by FIZ Karlsruhe - Leibniz Institute for Information Infrastructure.  All rights reserved.
data_101960-ICSD
_database_code_ICSD 101960
_audit_creation_date 2021-02-01
_chemical_name_common 'Germanium dilithium diphosphide'
_chemical_formula_structural 'Ge Li2 P2'
_chemical_formula_sum 'Ge1 Li2 P2'
_exptl_crystal_density_diffrn 2.73
_diffrn_ambient_temperature 293.
_citation_title

;
Polyanionic frameworks in the lithium phosphidogermanates Li$_2$GeP$_2$ and
LiGe$_3$P$_3$ - synthesis, structure, and lithium ion mobility
;
loop_
_citation_id
_citation_journal_full
_citation_year
_citation_journal_volume
_citation_page_first
_citation_page_last
_citation_journal_id_ASTM
primary 'Zeitschrift fuer Anorganische und Allgemeine Chemie' 2020 646 95 102
ZAACAB
loop_
_citation_author_citation_id
_citation_author_name
primary 'Eickhoff, Henrik'
primary 'Sedlmeier, Christian'
primary 'Klein, Wilhelm'
primary 'Raudaschl‐Sieber, Gabriele'
primary 'Gasteiger, Hubert A.'
primary 'Fässler, Thomas F.'
_cell_length_a 12.32233(14)
_cell_length_b 12.32233(14)
_cell_length_c 19.0122(4)
_cell_angle_alpha 90
_cell_angle_beta 90
_cell_angle_gamma 90
_cell_volume 2886.79
_cell_formula_units_Z 32
_space_group_name_H-M_alt 'I 41/a c d Z'
_space_group_IT_number 142
loop_
_space_group_symop_id
_space_group_symop_operation_xyz
1 'y+1/4, x+3/4, -z+3/4'
2 '-y+3/4, x+3/4, -z+1/4'
3 'x, y+1/2, -z'
4 '-x, y+1/2, -z+1/2'
5 '-y+3/4, -x+1/4, z+1/4'
6 'y+1/4, -x+1/4, z+3/4'
7 '-x, -y+1/2, z'
8 'x, -y+1/2, z+1/2'
9 'y+1/4, -x+3/4, -z+1/4'
10 '-y+3/4, -x+3/4, -z+3/4'
11 'x, -y, -z+1/2'
12 '-x, -y, -z'
13 '-y+3/4, x+1/4, z+3/4'
14 'y+1/4, x+1/4, z+1/4'
15 '-x, y, z+1/2'
16 'x, y, z'
17 'y+3/4, x+1/4, -z+1/4'
18 '-y+1/4, x+1/4, -z+3/4'
19 'x+1/2, y, -z+1/2'
20 '-x+1/2, y, -z'
21 '-y+1/4, -x+3/4, z+3/4'
22 'y+3/4, -x+3/4, z+1/4'
23 '-x+1/2, -y, z+1/2'
24 'x+1/2, -y, z'
25 'y+3/4, -x+1/4, -z+3/4'
26 '-y+1/4, -x+1/4, -z+1/4'
27 'x+1/2, -y+1/2, -z'
28 '-x+1/2, -y+1/2, -z+1/2'
29 '-y+1/4, x+3/4, z+1/4'
30 'y+3/4, x+3/4, z+3/4'
31 '-x+1/2, y+1/2, z'
32 'x+1/2, y+1/2, z+1/2'
loop_
_atom_type_symbol
_atom_type_oxidation_number
Li1+ 1
Ge4+ 4
P3- -3
loop_
_atom_site_label
_atom_site_type_symbol
_atom_site_symmetry_multiplicity
_atom_site_Wyckoff_symbol
_atom_site_fract_x
_atom_site_fract_y
_atom_site_fract_z
_atom_site_U_iso_or_equiv
_atom_site_occupancy
Li1 Li1+ 16 f 0.0949(3) 0.1551(3) 0.125 0.0247(9) 1
Li2 Li1+ 16 f 0.1555(3) 0.4055(3) 0.125 0.0357(12) 1
Li3 Li1+ 32 g 0.3755(3) 0.0976(3) 0.03468(18) 0.0287(7) 1
Ge1 Ge4+ 32 g 0.38104(2) 0.33726(2) 0.05591(2) 0.01159(7) 1
P1 P3- 16 d 0.5 0.25 -0.02197(3) 0.01376(11) 1
P2 P3- 16 e 0.25 0.44181(4) 0. 0.01266(11) 1
P3 P3- 32 g 0.28284(3) 0.22184(3) 0.12764(2) 0.01468(9) 1
loop_
_atom_site_aniso_label
_atom_site_aniso_type_symbol
_atom_site_aniso_U_11
_atom_site_aniso_U_22
_atom_site_aniso_U_33
_atom_site_aniso_U_12
_atom_site_aniso_U_13
_atom_site_aniso_U_23
Li1 Li1+ 0.0248(13) 0.0248(13) 0.025(3) -0.0048(16) -0.0024(12) -0.0024(12)
Li2 Li1+ 0.0380(17) 0.0380(17) 0.031(3) 0.016(2) 0.0005(14) -0.0005(14)
Li3 Li1+ 0.0330(18) 0.0247(16) 0.0284(18) -0.0081(13) 0.0005(14) -0.0003(13)
Ge1 Ge4+ 0.01090(9) 0.01134(9) 0.01254(10) 0.00053(5) -0.00120(5) 0.00061(5)
P1 P3- 0.0145(2) 0.0152(3) 0.0116(3) 0.0024(2) 0. 0.
P2 P3- 0.0119(2) 0.0102(2) 0.0159(3) 0. -0.00359(19) 0.
P3 P3- 0.01108(18) 0.01493(19) 0.0180(2) -0.00011(13) -0.00018(14) 0.00384(14)
#End of TTdata_101960-ICSD