
#(C) 2021 by FIZ Karlsruhe - Leibniz Institute for Information Infrastructure.  All rights reserved.
data_31349-ICSD
_database_code_ICSD 31349
_audit_creation_date 1983-12-31
_audit_update_record 2018-02-01
_chemical_name_common 'Phosphorus sulfide (4/3) - alpha'
_chemical_formula_structural 'P4 S3'
_chemical_formula_sum 'P4 S3'
_chemical_name_structure_type P4S3
_exptl_crystal_density_diffrn 2.09
_citation_title
'X-ray and neutron diffraction study of the crystal structure of alpha-P4 S3'
loop_
_citation_id
_citation_journal_full
_citation_year
_citation_journal_volume
_citation_page_first
_citation_page_last
_citation_journal_id_ASTM
primary 'Zeitschrift fuer Kristallographie' 1983 165 47 64 ZEKRDZ
loop_
_citation_author_citation_id
_citation_author_name
primary 'Chattopadhyay, Tapan Kumar'
primary 'May, Wolfgang'
primary 'Schnering, Hans Georg von'
primary 'Pawley, G. Stuart'
_cell_length_a 9.667(1)
_cell_length_b 10.596(1)
_cell_length_c 13.670(2)
_cell_angle_alpha 90.
_cell_angle_beta 90.
_cell_angle_gamma 90.
_cell_volume 1400.24
_cell_formula_units_Z 8
_space_group_name_H-M_alt 'P m n b'
_space_group_IT_number 62
loop_
_space_group_symop_id
_space_group_symop_operation_xyz
1 'x, y+1/2, -z+1/2'
2 '-x+1/2, y, z'
3 'x+1/2, -y+1/2, z+1/2'
4 '-x, -y, -z'
5 '-x, -y+1/2, z+1/2'
6 'x+1/2, -y, -z'
7 '-x+1/2, y+1/2, -z+1/2'
8 'x, y, z'
loop_
_atom_type_symbol
_atom_type_oxidation_number
P0+ 0
S0+ 0
P0+ 0
S0+ 0
loop_
_atom_site_label
_atom_site_type_symbol
_atom_site_symmetry_multiplicity
_atom_site_Wyckoff_symbol
_atom_site_fract_x
_atom_site_fract_y
_atom_site_fract_z
_atom_site_B_iso_or_equiv
_atom_site_occupancy
P1 P0+ 8 d 0.1345(4) 0.7310(3) 0.6619(3) . 1.
P2 P0+ 4 c 0.25 0.5816(5) 0.7410(3) . 1.
P3 P0+ 4 c 0.25 0.5211(4) 0.5067(3) . 1.
S1 S0+ 8 d 0.0848(7) 0.6472(5) 0.5289(5) . 1.
S2 S0+ 4 c 0.25 0.4314(8) 0.6428(6) . 1.
P4 P0+ 8 d 0.1349(4) 0.0535(4) 0.2539(2) . 1.
P5 P0+ 4 c 0.25 0.2134(4) 0.3224(4) . 1.
P6 P0+ 4 c 0.25 0.9695(4) 0.4685(4) . 1.
S3 S0+ 8 d 0.0832(8) 0.9388(6) 0.3730(4) . 1.
S4 S0+ 4 c 0.25 0.1675(8) 0.4712(7) . 1.
loop_
_atom_site_aniso_label
_atom_site_aniso_type_symbol
_atom_site_aniso_U_11
_atom_site_aniso_U_22
_atom_site_aniso_U_33
_atom_site_aniso_U_12
_atom_site_aniso_U_13
_atom_site_aniso_U_23
P1 P0+ 0.034(3) 0.047(2) 0.059(2) 0.005(2) 0.008(2) -0.014(2)
P2 P0+ 0.064(4) 0.063(3) 0.030(3) 0 0 0.0007(3)
P3 P0+ 0.048(4) 0.033(3) 0.035(3) 0 0 -0.004(2)
S1 S0+ 0.029(4) 0.041(4) 0.064(4) 0.000(3) -0.015(4) 0.002(3)
S2 S0+ 0.062(7) 0.021(5) 0.044(6) 0 0 0.014(4)
P4 P0+ 0.028(3) 0.073(3) 0.038(3) -0.001(2) -0.007(2) -0.001(2)
P5 P0+ 0.052(4) 0.034(3) 0.059(4) 0 0 0.015(3)
P6 P0+ 0.054(4) 0.040(3) 0.036(3) 0 0 0.005(3)
S3 S0+ 0.044(4) 0.054(4) 0.052(4) -0.022(4) 0.007(4) -0.006(3)
S4 S0+ 0.048(6) 0.037(5) 0.050(6) 0 0 -0.011(5)
#End of TTdata_31349-ICSD