
#(C) 2021 by FIZ Karlsruhe - Leibniz Institute for Information Infrastructure.  All rights reserved.
data_82688-ICSD
_database_code_ICSD 82688
_audit_creation_date 1998-06-26
_chemical_name_common 'Phosphorus oxide'
_chemical_formula_structural 'P2 O5'
_chemical_formula_sum 'O5 P2'
_exptl_crystal_density_diffrn 2.71
_diffrn_ambient_temperature 295.
_citation_title 'New refinement of the crystal structure of o-(P2 O5)'
loop_
_citation_id
_citation_journal_full
_citation_year
_citation_journal_volume
_citation_page_first
_citation_page_last
_citation_journal_id_ASTM
primary 'Journal of Solid State Chemistry' 1996 127 350 353 JSSCBI
loop_
_citation_author_citation_id
_citation_author_name
primary 'Arbib, E.H.'
primary 'Elouadi, B.'
primary 'Chaminade, J.P.'
primary 'Darriet, J.'
_cell_length_a 16.314(2)
_cell_length_b 8.115(3)
_cell_length_c 5.265(9)
_cell_angle_alpha 90.
_cell_angle_beta 90.
_cell_angle_gamma 90.
_cell_volume 697.02
_cell_formula_units_Z 8
_space_group_name_H-M_alt 'F d d 2'
_space_group_IT_number 43
loop_
_space_group_symop_id
_space_group_symop_operation_xyz
1 'x+1/4, -y+1/4, z+1/4'
2 '-x+1/4, y+1/4, z+1/4'
3 '-x, -y, z'
4 'x, y, z'
5 'x+1/4, -y+3/4, z+3/4'
6 '-x+1/4, y+3/4, z+3/4'
7 '-x, -y+1/2, z+1/2'
8 'x, y+1/2, z+1/2'
9 'x+3/4, -y+1/4, z+3/4'
10 '-x+3/4, y+1/4, z+3/4'
11 '-x+1/2, -y, z+1/2'
12 'x+1/2, y, z+1/2'
13 'x+3/4, -y+3/4, z+1/4'
14 '-x+3/4, y+3/4, z+1/4'
15 '-x+1/2, -y+1/2, z'
16 'x+1/2, y+1/2, z'
loop_
_atom_type_symbol
_atom_type_oxidation_number
P5+ 5
O2- -2
loop_
_atom_site_label
_atom_site_type_symbol
_atom_site_symmetry_multiplicity
_atom_site_Wyckoff_symbol
_atom_site_fract_x
_atom_site_fract_y
_atom_site_fract_z
_atom_site_B_iso_or_equiv
_atom_site_occupancy
P1 P5+ 16 b 0.17477(3) 0.16940(6) 0 . 1.
O1 O2- 16 b 0.19398(11) 0.08499(22) 0.23409(40) . 1.
O2 O2- 16 b 0.11341(9) 0.31958(17) 0.02563(40) . 1.
O3 O2- 8 a 0.25 0.25 0.85663(48) . 1.
loop_
_atom_site_aniso_label
_atom_site_aniso_type_symbol
_atom_site_aniso_U_11
_atom_site_aniso_U_22
_atom_site_aniso_U_33
_atom_site_aniso_U_12
_atom_site_aniso_U_13
_atom_site_aniso_U_23
P1 P5+ 0.0066(1) 0.0061(2) 0.0082(2) -.0002(2) 0.0001(2) -.0006(2)
O1 O2- 0.0184(6) 0.0161(6) 0.0127(7) 0.0021(6) -.0029(7) 0.0052(7)
O2 O2- 0.0106(5) 0.0086(5) 0.0113(8) 0.0032(4) -.0003(5) -.0035(6)
O3 O2- 0.0072(7) 0.0124(8) 0.0109(9) -.0026(6) 0 0
#End of TTdata_82688-ICSD