
#(C) 2021 by FIZ Karlsruhe - Leibniz Institute for Information Infrastructure.  All rights reserved.
data_74546-ICSD
_database_code_ICSD 74546
_audit_creation_date 1995-10-17
_audit_update_record 2016-02-01
_chemical_name_common Pentaselena-diphospha-bicyclo-heptane
_chemical_formula_structural 'P2 Se5'
_chemical_formula_sum 'P2 Se5'
_exptl_crystal_density_diffrn 4.02
_diffrn_ambient_temperature 295.
_citation_title P2Se5
loop_
_citation_id
_citation_journal_full
_citation_year
_citation_journal_volume
_citation_page_first
_citation_page_last
_citation_journal_id_ASTM
primary 'Acta Crystallographica, Section C: Crystal Structure Communications'
1994 50 659 661 ACSCEE
loop_
_citation_author_citation_id
_citation_author_name
primary 'Blachnik, R.'
primary 'Loennecke, P.'
primary 'Boldt, K.'
primary 'Engelen, B.'
_cell_length_a 6.944(1)
_cell_length_b 20.420(2)
_cell_length_c 5.836(1)
_cell_angle_alpha 90.
_cell_angle_beta 114.15(1)
_cell_angle_gamma 90.
_cell_volume 755.1
_cell_formula_units_Z 4
_space_group_name_H-M_alt 'P 1 21/c 1'
_space_group_IT_number 14
loop_
_space_group_symop_id
_space_group_symop_operation_xyz
1 'x, -y+1/2, z+1/2'
2 '-x, -y, -z'
3 '-x, y+1/2, -z+1/2'
4 'x, y, z'
loop_
_atom_type_symbol
_atom_type_oxidation_number
P3+ 3
Se1- -1
Se2- -2
loop_
_atom_site_label
_atom_site_type_symbol
_atom_site_symmetry_multiplicity
_atom_site_Wyckoff_symbol
_atom_site_fract_x
_atom_site_fract_y
_atom_site_fract_z
_atom_site_B_iso_or_equiv
_atom_site_occupancy
P1 P3+ 4 e 0.2737(3) 0.3332(1) 0.3043(3) . 1.
P2 P3+ 4 e 0.2835(3) 0.4538(1) 0.7034(3) . 1.
Se1 Se1- 4 e 0.5584(1) 0.30816(4) 0.6571(2) . 1.
Se2 Se1- 4 e 0.5705(1) 0.39515(4) 0.9359(1) . 1.
Se3 Se1- 4 e -.0041(1) 0.39659(5) 0.6653(1) . 1.
Se4 Se1- 4 e -.0050(1) 0.30920(4) 0.3925(2) . 1.
Se5 Se2- 4 e 0.2733(1) 0.44310(4) 0.3178(1) . 1.
loop_
_atom_site_aniso_label
_atom_site_aniso_type_symbol
_atom_site_aniso_U_11
_atom_site_aniso_U_22
_atom_site_aniso_U_33
_atom_site_aniso_U_12
_atom_site_aniso_U_13
_atom_site_aniso_U_23
P1 P3+ 0.0348(7) 0.0254(9) 0.0354(8) -.0017(8) 0.0157(6) -.0075(8)
P2 P3+ 0.0299(7) 0.023(1) 0.0258(7) 0.0027(7) 0.0112(5) -.0032(7)
Se1 Se1- 0.0215(2) 0.0243(4) 0.0593(4) 0.0037(3) 0.0134(2) 0.0007(4)
Se2 Se1- 0.0255(3) 0.0451(5) 0.0282(3) 0.0043(3) 0.0074(2) 0.0015(3)
Se3 Se1- 0.0249(2) 0.0514(5) 0.0362(3) 0.0023(3) 0.0155(2) 0.0027(4)
Se4 Se1- 0.0211(3) 0.0269(4) 0.0550(4) -.0036(3) 0.0078(2) 0.0034(4)
Se5 Se2- 0.0508(3) 0.0260(4) 0.0309(3) -.0037(3) 0.0205(2) 0.0011(3)
#End of TTdata_74546-ICSD