
#(C) 2021 by FIZ Karlsruhe - Leibniz Institute for Information Infrastructure.  All rights reserved.
data_66020-ICSD
_database_code_ICSD 66020
_audit_creation_date 1990-12-27
_audit_update_record 2011-08-01
_chemical_name_common 'Tetraphosphorus nonasulfide'
_chemical_formula_structural 'P4 S9'
_chemical_formula_sum 'P4 S9'
_exptl_crystal_density_diffrn 2.11
_citation_title
'Ueber die Struktur einer neuen Modifikation des Phosphorsulfids P4 S9'
loop_
_citation_id
_citation_journal_full
_citation_year
_citation_journal_volume
_citation_page_first
_citation_page_last
_citation_journal_id_ASTM
primary 'Zeitschrift fuer Anorganische und Allgemeine Chemie (1950) (DE)' 1990
588 139 146 ZAACAB
loop_
_citation_author_citation_id
_citation_author_name
primary 'Wallis, B.'
primary 'Wolf, G.U.'
primary 'Leibnitz, P.'
_cell_length_a 8.555(2)
_cell_length_b 12.637(5)
_cell_length_c 12.453(4)
_cell_angle_alpha 90.
_cell_angle_beta 104.94(2)
_cell_angle_gamma 90.
_cell_volume 1300.78
_cell_formula_units_Z 4
_space_group_name_H-M_alt 'P 1 21/n 1'
_space_group_IT_number 14
loop_
_space_group_symop_id
_space_group_symop_operation_xyz
1 '-x+1/2, y+1/2, -z+1/2'
2 '-x, -y, -z'
3 'x+1/2, -y+1/2, z+1/2'
4 'x, y, z'
loop_
_atom_type_symbol
_atom_type_oxidation_number
S2- -2
P3+ 3
P5+ 5
loop_
_atom_site_label
_atom_site_type_symbol
_atom_site_symmetry_multiplicity
_atom_site_Wyckoff_symbol
_atom_site_fract_x
_atom_site_fract_y
_atom_site_fract_z
_atom_site_B_iso_or_equiv
_atom_site_occupancy
S1 S2- 4 e 0.8844(2) 0.3339(1) 0.3557(1) 2.84(3) 1.
S2 S2- 4 e 0.6688(2) 0.2805(1) 0.6738(1) 3.21(4) 1.
S3 S2- 4 e 0.9001(2) 0.4779(1) 0.7965(1) 3.29(4) 1.
S4 S2- 4 e 0.5086(2) 0.2953(1) 0.3967(1) 3.11(4) 1.
S5 S2- 4 e 0.7420(2) 0.4975(1) 0.5288(1) 2.79(3) 1.
S6 S2- 4 e 0.5882(2) 0.4991(2) 0.2595(2) 4.04(4) 1.
S7 S2- 4 e 0.0457(2) 0.3236(1) 0.6370(1) 2.65(3) 1.
S8 S2- 4 e 0.8116(2) 0.1198(2) 0.5008(2) 3.44(4) 1.
S9 S2- 4 e 0.1724(2) 0.1682(2) 0.4694(2) 3.95(4) 1.
P1 P3+ 4 e 0.6017(2) 0.1891(2) 0.5276(2) 3.12(4) 1.
P2 P5+ 4 e 0.9809(2) 0.2336(1) 0.4911(1) 2.47(3) 1.
P3 P5+ 4 e 0.6777(2) 0.4077(1) 0.3817(1) 2.53(3) 1.
P4 P5+ 4 e 0.8374(2) 0.3958(1) 0.6623(1) 2.31(3) 1.
#End of TTdata_66020-ICSD