
#(C) 2021 by FIZ Karlsruhe - Leibniz Institute for Information Infrastructure.  All rights reserved.
data_412901-ICSD
_database_code_ICSD 412901
_audit_creation_date 2005-04-01
_audit_update_record 2016-02-01
_chemical_name_common 'Phosphorus ozonide (4/18)'
_chemical_formula_structural 'P4 O6 (O3)4'
_chemical_formula_sum 'O18 P4'
_exptl_crystal_density_diffrn 2.53
_diffrn_ambient_temperature 180.
_citation_title

;
The first ozonide of a phosphorus oxide - preparation, characterization, and
structure of P4 O18
;
loop_
_citation_id
_citation_journal_full
_citation_year
_citation_journal_volume
_citation_page_first
_citation_page_last
_citation_journal_id_ASTM
primary 'Angewandte Chemie, International Edition' 2003 42 2484 2486 ACIEF5
loop_
_citation_author_citation_id
_citation_author_name
primary 'Dimitrov, A.'
primary 'Ziemer, B.'
primary 'Hunnius, W.D.'
primary 'Meisel, M.'
_cell_length_a 9.0947(17)
_cell_length_b 14.2355(18)
_cell_length_c 8.3666(12)
_cell_angle_alpha 90.
_cell_angle_beta 90.
_cell_angle_gamma 90.
_cell_volume 1083.2
_cell_formula_units_Z 4
_space_group_name_H-M_alt 'P 21 21 21'
_space_group_IT_number 19
loop_
_space_group_symop_id
_space_group_symop_operation_xyz
1 '-x, y+1/2, -z+1/2'
2 'x+1/2, -y+1/2, -z'
3 '-x+1/2, -y, z+1/2'
4 'x, y, z'
loop_
_atom_type_symbol
_atom_type_oxidation_number
O2- -2
O1- -1
O0+ 0
O1- -1
O0+ 0
O1- -1
O0+ 0
O1- -1
O0+ 0
O1- -1
P5+ 5
loop_
_atom_site_label
_atom_site_type_symbol
_atom_site_symmetry_multiplicity
_atom_site_Wyckoff_symbol
_atom_site_fract_x
_atom_site_fract_y
_atom_site_fract_z
_atom_site_U_iso_or_equiv
_atom_site_occupancy
O1 O2- 4 a 0.6088(4) 0.0117(3) 0.2402(5) 0.0168(8) 1
O2 O2- 4 a 0.4645(4) 0.1069(3) 0.0608(4) 0.0190(9) 1
O3 O2- 4 a 0.4670(4) 0.1531(3) 0.3464(5) 0.0189(9) 1
O4 O2- 4 a 0.7265(4) 0.1217(3) 0.0396(4) 0.0187(9) 1
O5 O2- 4 a 0.7287(4) 0.1617(3) 0.3183(4) 0.0168(9) 1
O6 O2- 4 a 0.5768(4) 0.2605(3) 0.1378(4) 0.0198(9) 1
O7 O1- 4 a 0.2717(4) 0.0520(3) 0.1980(5) 0.0257(10) 1
O8 O0+ 4 a 0.2412(5) -0.0092(3) 0.3336(5) 0.0301(11) 1
O9 O1- 4 a 0.3965(5) -0.0186(3) 0.3718(5) 0.0265(10) 1
O10 O1- 4 a 0.8851(5) 0.0436(3) 0.3331(6) 0.0294(11) 1
O11 O0+ 4 a 0.9445(4) -0.0340(3) 0.2378(6) 0.0314(10) 1
O12 O1- 4 a 0.8504(5) -0.0112(4) 0.1040(6) 0.0392(13) 1
O13 O1- 4 a 0.6827(5) 0.2337(4) -0.1432(5) 0.0307(11) 1
O14 O0+ 4 a 0.5566(5) 0.2701(4) -0.2297(5) 0.0338(11) 1
O15 O1- 4 a 0.4540(5) 0.2167(3) -0.1299(5) 0.0274(10) 1
O16 O1- 4 a 0.7068(5) 0.3108(3) 0.4021(6) 0.0306(11) 1
O17 O0+ 4 a 0.5914(5) 0.3731(3) 0.4567(5) 0.0284(10) 1
O18 O1- 4 a 0.4768(5) 0.3054(3) 0.4129(5) 0.0276(10) 1
P1 P5+ 4 a 0.44564(13) 0.06136(11) 0.24064(17) 0.0159(3) 1
P2 P5+ 4 a 0.75648(15) 0.06885(11) 0.20659(16) 0.0173(4) 1
P3 P5+ 4 a 0.58109(15) 0.18474(11) -0.00320(17) 0.0185(4) 1
P4 P5+ 4 a 0.59305(17) 0.23466(11) 0.32354(17) 0.0174(4) 1
loop_
_atom_site_aniso_label
_atom_site_aniso_type_symbol
_atom_site_aniso_U_11
_atom_site_aniso_U_22
_atom_site_aniso_U_33
_atom_site_aniso_U_12
_atom_site_aniso_U_13
_atom_site_aniso_U_23
O1 O2- 0.0162(16) 0.011(2) 0.0229(19) -0.0004(14) 0.0040(16) 0.0032(16)
O2 O2- 0.0179(18) 0.021(2) 0.0181(18) 0.0022(16) -0.0055(16) -0.0007(16)
O3 O2- 0.0169(18) 0.017(3) 0.0227(19) -0.0022(16) 0.0056(18) -0.0037(15)
O4 O2- 0.0164(19) 0.021(2) 0.0182(18) -0.0008(15) 0.0006(16) -0.0003(15)
O5 O2- 0.0150(18) 0.019(2) 0.0161(18) 0.0011(15) 0.0013(15) -0.0010(15)
O6 O2- 0.026(2) 0.019(2) 0.0147(18) -0.0034(17) 0.0020(17) 0.0017(15)
O7 O1- 0.018(2) 0.025(3) 0.034(2) -0.0026(16) -0.0019(18) 0.0021(18)
O8 O0+ 0.018(2) 0.031(3) 0.041(3) -0.0063(19) 0.005(2) 0.009(2)
O9 O1- 0.0164(18) 0.026(3) 0.037(2) -0.0054(18) 0.0025(19) 0.0052(19)
O10 O1- 0.025(2) 0.024(3) 0.039(2) 0.0074(19) -0.011(2) -0.0062(19)
O11 O0+ 0.028(2) 0.026(3) 0.040(2) 0.0054(17) -0.005(2) -0.0025(19)
O12 O1- 0.031(2) 0.050(4) 0.036(3) 0.018(2) -0.001(2) -0.002(2)
O13 O1- 0.027(2) 0.036(3) 0.029(2) -0.004(2) -0.0062(19) 0.011(2)
O14 O0+ 0.038(2) 0.034(3) 0.030(2) 0.0012(19) -0.006(2) 0.012(2)
O15 O1- 0.028(2) 0.027(3) 0.027(2) 0.0051(19) 0.002(2) 0.0082(18)
O16 O1- 0.029(2) 0.022(3) 0.041(2) -0.0003(19) -0.003(2) -0.013(2)
O17 O0+ 0.039(2) 0.018(3) 0.028(2) -0.0021(19) 0.004(2) -0.0078(17)
O18 O1- 0.026(2) 0.018(3) 0.038(2) -0.0052(18) 0.0046(19) -0.0117(18)
P1 P5+ 0.0139(6) 0.0140(8) 0.0198(7) -0.0007(5) -0.0004(5) -0.0008(6)
P2 P5+ 0.0140(6) 0.0179(8) 0.0201(7) 0.0009(6) 0.0004(6) 0.0012(6)
P3 P5+ 0.0200(7) 0.0172(8) 0.0183(7) 0.0001(6) -0.0018(6) 0.0012(6)
P4 P5+ 0.0214(7) 0.0125(9) 0.0183(7) -0.0005(6) 0.0013(6) -0.0005(5)
#End of TTdata_412901-ICSD