
#(C) 2021 by FIZ Karlsruhe - Leibniz Institute for Information Infrastructure.  All rights reserved.
data_16452-ICSD
_database_code_ICSD 16452
_audit_creation_date 1981-12-31
_audit_update_record 2012-02-01
_chemical_name_common 'Tetraphosphorus heptaoxide'
_chemical_formula_structural 'P4 O7'
_chemical_formula_sum 'O7 P4'
_chemical_name_structure_type P4O7
_exptl_crystal_density_diffrn 2.35
_citation_title 'Kristallstruktur von P4 O7'
loop_
_citation_id
_citation_journal_full
_citation_year
_citation_journal_volume
_citation_page_first
_citation_page_last
_citation_journal_id_ASTM
primary 'Angewandte Chemie' 1981 93 120 121 ANCEAD
loop_
_citation_author_citation_id
_citation_author_name
primary 'Jansen, M.'
primary 'Voss, M.'
_cell_length_a 9.817(4)
_cell_length_b 9.954(4)
_cell_length_c 6.858(4)
_cell_angle_alpha 90.
_cell_angle_beta 96.8
_cell_angle_gamma 90.
_cell_volume 665.44
_cell_formula_units_Z 4
_space_group_name_H-M_alt 'P 1 21/n 1'
_space_group_IT_number 14
loop_
_space_group_symop_id
_space_group_symop_operation_xyz
1 '-x+1/2, y+1/2, -z+1/2'
2 '-x, -y, -z'
3 'x+1/2, -y+1/2, z+1/2'
4 'x, y, z'
loop_
_atom_type_symbol
_atom_type_oxidation_number
P5+ 5
P3+ 3
O2- -2
loop_
_atom_site_label
_atom_site_type_symbol
_atom_site_symmetry_multiplicity
_atom_site_Wyckoff_symbol
_atom_site_fract_x
_atom_site_fract_y
_atom_site_fract_z
_atom_site_B_iso_or_equiv
_atom_site_occupancy
P1 P5+ 4 e 0.1165(1) -.1098(1) 0.8258(1) . 1.
P2 P3+ 4 e 0.1709(1) 0.1052(1) 0.3201(1) . 1.
P3 P3+ 4 e 0.0201(1) -.2899(1) 0.5102(1) . 1.
P4 P3+ 4 e 0.0518(1) 0.3352(1) 0.9066(3) . 1.
O1 O2- 4 e 0.2306(2) -.0271(2) 0.9066(3) . 1.
O2 O2- 4 e 0.0766(2) -.2261(2) 0.9676(3) . 1.
O3 O2- 4 e 0.1371(2) -.1857(2) 0.6287(3) . 1.
O4 O2- 4 e 0.0238(2) 0.0314(2) 0.2275(3) . 1.
O5 O2- 4 e 0.1736(2) 0.2280(2) 0.1624(3) . 1.
O6 O2- 4 e 0.1123(2) 0.1862(2) 0.5010(3) . 1.
O7 O2- 4 e 0.0100(2) 0.3832(2) 0.3033(3) . 1.
loop_
_atom_site_aniso_label
_atom_site_aniso_type_symbol
_atom_site_aniso_U_11
_atom_site_aniso_U_22
_atom_site_aniso_U_33
_atom_site_aniso_U_12
_atom_site_aniso_U_13
_atom_site_aniso_U_23
P1 P5+ 0.0239(3) 0.0354(4) 0.0361(4) 0.0007(8) 0.0033(10) -.0027(33)
P2 P3+ 0.0257(3) 0.0338(4) 0.0449(5) 0.0015(3) 0.0009(3) 0.0090(3)
P3 P3+ 0.0405(4) 0.0574(5) 0.0408(5) -.0092(4) 0.0113(4) -.0177(4)
P4 P3+ 0.0346(4) 0.0316(4) 0.0441(5) 0.0003(3) 0.0019(3) 0.0106(3)
O1 O2- 0.0323(10) 0.0509(15) 0.0576(14) -.0105(9) 0.0002(10) -.0083(11)
O2 O2- 0.0301(9) 0.0354(11) 0.0371(11) 0.0017(8) -.0031(8) 0.0016(9)
O3 O2- 0.0299(10) 0.056(10) 0.0436(12) -.0085(9) 0.0135(9) -.0119(10)
O4 O2- 0.0286(9) 0.0279(10) 0.0422(11) -.0009(7) 0.0028(8) 0.0037(8)
O5 O2- 0.0247(9) 0.0338(10) 0.0435(12) -.0005(8) 0.0078(8) 0.0059(9)
O6 O2- 0.0370(11) 0.0496(13) 0.0344(11) -.0085(9) -.0024(9) 0.0060(9)
O7 O2- 0.0362(10) 0.0321(10) 0.0550(13) 0.0007(8) 0.0033(10) -.0079(9)
#End of TTdata_16452-ICSD