
#(C) 2021 by FIZ Karlsruhe - Leibniz Institute for Information Infrastructure.  All rights reserved.
data_1995-ICSD
_database_code_ICSD 1995
_audit_creation_date 1986-10-22
_audit_update_record 2012-02-01
_chemical_name_common 'Phosphorus sulfide (4/5) - beta, HT'
_chemical_formula_structural 'P4 S5'
_chemical_formula_sum 'P4 S5'
_chemical_name_structure_type P4S5
_exptl_crystal_density_diffrn 2.26
_citation_title 'Beta-tetraphophorus pentasulphide'
loop_
_citation_id
_citation_journal_full
_citation_year
_citation_journal_volume
_citation_page_first
_citation_page_last
_citation_journal_id_ASTM
primary

;
Acta Crystallographica, Section B: Structural Crystallography and Crystal
Chemistry
; 1975 31 2738 2740 ACBCAR
loop_
_citation_author_citation_id
_citation_author_name
primary 'Griffin, A.M.'
primary 'Sheldrick, G.M.'
_cell_length_a 6.389(3)
_cell_length_b 10.966(5)
_cell_length_c 6.613(3)
_cell_angle_alpha 90.
_cell_angle_beta 115.65(6)
_cell_angle_gamma 90.
_cell_volume 417.66
_cell_formula_units_Z 2
_space_group_name_H-M_alt 'P 1 21/m 1'
_space_group_IT_number 11
loop_
_space_group_symop_id
_space_group_symop_operation_xyz
1 'x, -y+1/2, z'
2 '-x, -y, -z'
3 '-x, y+1/2, -z'
4 'x, y, z'
loop_
_atom_type_symbol
_atom_type_oxidation_number
P3+ 3
P2+ 2
S2- -2
loop_
_atom_site_label
_atom_site_type_symbol
_atom_site_symmetry_multiplicity
_atom_site_Wyckoff_symbol
_atom_site_fract_x
_atom_site_fract_y
_atom_site_fract_z
_atom_site_B_iso_or_equiv
_atom_site_occupancy
P1 P3+ 2 e 0.2851(2) 0.25 0.3388(2) . 1.
P2 P3+ 2 e 0.8706(2) 0.25 0.7714(2) . 1.
P3 P2+ 4 f 0.4214(1) 0.1458(1) 0.8575(1) . 1.
S1 S2- 2 e 0.6449(2) 0.25 0.4219(2) . 1.
S2 S2- 4 f 0.7673(1) 0.1053(1) 0.9179(1) . 1.
S3 S2- 4 f 0.2231(1) 0.1053(1) 0.5158(1) . 1.
loop_
_atom_site_aniso_label
_atom_site_aniso_type_symbol
_atom_site_aniso_U_11
_atom_site_aniso_U_22
_atom_site_aniso_U_33
_atom_site_aniso_U_12
_atom_site_aniso_U_13
_atom_site_aniso_U_23
P1 P3+ 0.0240(6) 0.0538(8) 0.0283(6) 0 0.0091(5) 0
P2 P3+ 0.0205(6) 0.0499(8) 0.0328(7) 0 0.0122(5) 0
P3 P2+ 0.0288(5) 0.0283(6) 0.0380(5) -0.0002(3) 0.0166(4) 0.0052(3)
S1 S2- 0.0257(6) 0.0661(9) 0.0309(6) 0 0.0144(5) 0
S2 S2- 0.0305(5) 0.0377(6) 0.0421(5) 0.0103(3) 0.0146(4) 0.0081(3)
S3 S2- 0.0329(5) 0.0356(6) 0.0460(5) -0.0104(3) 0.0162(4) -0.0111(3)
#End of TTdata_1995-ICSD