
#(C) 2021 by FIZ Karlsruhe - Leibniz Institute for Information Infrastructure.  All rights reserved.
data_26169-ICSD
_database_code_ICSD 26169
_audit_creation_date 1986-10-22
_audit_update_record 1987-02-13
_chemical_name_common 'Tetraphosphorus nonasulfide'
_chemical_formula_structural 'P4 S9'
_chemical_formula_sum 'P4 S9'
_exptl_crystal_density_diffrn 2.01
_citation_title

;
Die Struktur eines Phosphor(III,V)-Sulfids der ungefaehren Zusammensetzung P4
S9
;
loop_
_citation_id
_citation_journal_full
_citation_year
_citation_journal_volume
_citation_page_first
_citation_page_last
_citation_journal_id_ASTM
primary

;
Acta Crystallographica, Section B: Structural Crystallography and Crystal
Chemistry
; 1969 25 1229 1231 ACBCAR
loop_
_citation_author_citation_id
_citation_author_name
primary 'Hilmer, W.'
_cell_length_a 17.60(53)
_cell_length_b 17.60(53)
_cell_length_c 17.60(53)
_cell_angle_alpha 90.
_cell_angle_beta 90.
_cell_angle_gamma 90.
_cell_volume 5451.78
_cell_formula_units_Z 16
_space_group_name_H-M_alt 'I a -3'
_space_group_IT_number 206
loop_
_space_group_symop_id
_space_group_symop_operation_xyz
1 '-z, x, y+1/2'
2 'z, x+1/2, -y'
3 'z+1/2, -x, y'
4 '-z, -x, -y'
5 'y+1/2, -z, x'
6 '-y, z, x+1/2'
7 'y, z+1/2, -x'
8 '-y, -z, -x'
9 'x, y+1/2, -z'
10 'x+1/2, -y, z'
11 '-x, y, z+1/2'
12 '-x, -y, -z'
13 'z, -x, -y+1/2'
14 '-z, -x+1/2, y'
15 '-z+1/2, x, -y'
16 'z, x, y'
17 '-y+1/2, z, -x'
18 'y, -z, -x+1/2'
19 '-y, -z+1/2, x'
20 'y, z, x'
21 '-x, -y+1/2, z'
22 '-x+1/2, y, -z'
23 'x, -y, -z+1/2'
24 'x, y, z'
25 '-z+1/2, x+1/2, y'
26 'z+1/2, x, -y+1/2'
27 'z, -x+1/2, y+1/2'
28 '-z+1/2, -x+1/2, -y+1/2'
29 'y, -z+1/2, x+1/2'
30 '-y+1/2, z+1/2, x'
31 'y+1/2, z, -x+1/2'
32 '-y+1/2, -z+1/2, -x+1/2'
33 'x+1/2, y, -z+1/2'
34 'x, -y+1/2, z+1/2'
35 '-x+1/2, y+1/2, z'
36 '-x+1/2, -y+1/2, -z+1/2'
37 'z+1/2, -x+1/2, -y'
38 '-z+1/2, -x, y+1/2'
39 '-z, x+1/2, -y+1/2'
40 'z+1/2, x+1/2, y+1/2'
41 '-y, z+1/2, -x+1/2'
42 'y+1/2, -z+1/2, -x'
43 '-y+1/2, -z, x+1/2'
44 'y+1/2, z+1/2, x+1/2'
45 '-x+1/2, -y, z+1/2'
46 '-x, y+1/2, -z+1/2'
47 'x+1/2, -y+1/2, -z'
48 'x+1/2, y+1/2, z+1/2'
loop_
_atom_type_symbol
_atom_type_oxidation_number
P3+ 3
P5+ 5
S2- -2
loop_
_atom_site_label
_atom_site_type_symbol
_atom_site_symmetry_multiplicity
_atom_site_Wyckoff_symbol
_atom_site_fract_x
_atom_site_fract_y
_atom_site_fract_z
_atom_site_B_iso_or_equiv
_atom_site_occupancy
P1 P3+ 16 c 0.1729(8) 0.1729(8) 0.1729(8) 5.41 1.
P2 P5+ 48 e -.0095(8) 0.1005(8) 0.1460(8) 4.2 1.
S1 S2- 48 e 0.0611(8) 0.1684(8) 0.2163(8) 4.94 1.
S2 S2- 48 e 0.0347(8) -.0126(8) 0.1438(8) 4.94 1.
S3 S2- 48 e -.1113(8) 0.0995(8) 0.1872(8) 4.94 1.
#End of TTdata_26169-ICSD