
#(C) 2021 by FIZ Karlsruhe - Leibniz Institute for Information Infrastructure.  All rights reserved.
data_409061-ICSD
_database_code_ICSD 409061
_audit_creation_date 1999-06-02
_chemical_name_common Hexathio-tetrakis(thiophosphorus)-tricyclodecane
_chemical_formula_structural 'P4 S10'
_chemical_formula_sum 'P4 S10'
_chemical_name_structure_type P4S10
_exptl_crystal_density_diffrn 2.11
_citation_title 'Refinement of the crystal structure of P4 S10'
loop_
_citation_id
_citation_journal_full
_citation_year
_citation_journal_volume
_citation_page_first
_citation_page_last
_citation_journal_id_ASTM
primary 'Zeitschrift fuer Kristallographie - New Crystal Structures' 1998 213
233 234 ZKNSFT
loop_
_citation_author_citation_id
_citation_author_name
primary 'Blachnik, R.'
primary 'Matthiesen, J.'
primary 'Mueller, A.'
primary 'Nowottnick, H.'
primary 'Reuter, H.'
_cell_length_a 9.0072(14)
_cell_length_b 9.2080(15)
_cell_length_c 9.195(2)
_cell_angle_alpha 92.50(2)
_cell_angle_beta 100.72(2)
_cell_angle_gamma 109.842(11)
_cell_volume 700.11
_cell_formula_units_Z 2
_space_group_name_H-M_alt 'P -1'
_space_group_IT_number 2
loop_
_space_group_symop_id
_space_group_symop_operation_xyz
1 '-x, -y, -z'
2 'x, y, z'
loop_
_atom_type_symbol
_atom_type_oxidation_number
P5+ 5
S2- -2
loop_
_atom_site_label
_atom_site_type_symbol
_atom_site_symmetry_multiplicity
_atom_site_Wyckoff_symbol
_atom_site_fract_x
_atom_site_fract_y
_atom_site_fract_z
_atom_site_B_iso_or_equiv
_atom_site_occupancy
P1 P5+ 2 i 0.2624(2) 0.08916(13) -.18668(14) . 1.
P2 P5+ 2 i -.08967(14) 0.15793(13) -.28748(13) . 1.
P3 P5+ 2 i 0.26988(14) 0.43990(12) -.30026(13) . 1.
P4 P5+ 2 i 0.17752(14) 0.34476(12) 0.03572(12) . 1.
S1 S2- 2 i 0.3520(2) -.0693(2) -.1898(2) . 1.
S2 S2- 2 i 0.0175(2) -.01066(13) -.28817(13) . 1.
S3 S2- 2 i 0.37890(15) 0.27124(13) -.30175(14) . 1.
S4 S2- 2 i 0.28688(14) 0.17705(13) 0.03439(13) . 1.
S5 S2- 2 i -.3132(2) 0.0644(2) -.3784(2) . 1.
S6 S2- 2 i 0.02466(14) 0.33828(13) -.40474(13) . 1.
S7 S2- 2 i -.06709(14) 0.24408(13) -.06704(13) . 1.
S8 S2- 2 i 0.3730(2) 0.60862(14) -.40210(14) . 1.
S9 S2- 2 i 0.29030(14) 0.52672(12) -.08015(12) . 1.
S10 S2- 2 i 0.1972(2) 0.42411(15) 0.23626(14) . 1.
loop_
_atom_site_aniso_label
_atom_site_aniso_type_symbol
_atom_site_aniso_U_11
_atom_site_aniso_U_22
_atom_site_aniso_U_33
_atom_site_aniso_U_12
_atom_site_aniso_U_13
_atom_site_aniso_U_23
P1 P5+ 0.0531(8) 0.0271(7) 0.0416(8) 0.0196(6) 0.0202(6) 0.0115(5)
P2 P5+ 0.0381(7) 0.0326(7) 0.0350(7) 0.0071(6) 0.0048(5) 0.0091(5)
P3 P5+ 0.0418(7) 0.0233(7) 0.0334(7) 0.0111(5) 0.0133(5) 0.0095(5)
P4 P5+ 0.0432(8) 0.0240(7) 0.0297(7) 0.0112(5) 0.0102(5) 0.0053(5)
S1 S2- 0.1047(13) 0.0602(10) 0.0935(12) 0.057(1) 0.0536(11) 0.0325(9)
S2 S2- 0.0591(9) 0.0248(7) 0.0402(8) 0.0083(6) 0.0112(6) 0.0023(5)
S3 S2- 0.0522(8) 0.0336(7) 0.0524(8) 0.0215(6) 0.0286(6) 0.0164(6)
S4 S2- 0.0462(8) 0.0317(7) 0.0364(7) 0.0180(6) 0.0091(5) 0.0117(5)
S5 S2- 0.0420(8) 0.0689(10) 0.0668(10) -.0004(7) -.0082(7) 0.0171(8)
S6 S2- 0.0459(7) 0.0363(7) 0.0344(7) 0.0136(6) 0.0072(5) 0.0137(5)
S7 S2- 0.0390(7) 0.0390(7) 0.0402(7) 0.0144(6) 0.0132(5) 0.0087(6)
S8 S2- 0.0640(9) 0.0334(7) 0.0457(8) 0.0118(6) 0.0227(7) 0.0166(6)
S9 S2- 0.0494(8) 0.0237(7) 0.0344(7) 0.0089(5) 0.0121(6) 0.0054(5)
S10 S2- 0.0846(11) 0.0405(8) 0.0337(7) 0.0174(7) 0.0172(7) 0.0012(6)
#End of TTdata_409061-ICSD