
#(C) 2021 by FIZ Karlsruhe - Leibniz Institute for Information Infrastructure.  All rights reserved.
data_23842-ICSD
_database_code_ICSD 23842
_audit_creation_date 1986-10-22
_audit_update_record 2013-08-01
_chemical_name_common 'Tetraphosphorus heptasulfide'
_chemical_formula_structural 'P4 S7'
_chemical_formula_sum 'P4 S7'
_chemical_name_structure_type P4S7
_exptl_crystal_density_diffrn 2.2
_citation_title
'Refinement of the crystal structures of some phosphorus sulphides'
loop_
_citation_id
_citation_journal_full
_citation_year
_citation_journal_volume
_citation_page_first
_citation_page_last
_citation_journal_id_ASTM
primary 'Acta Crystallographica' 1965 19 864 867 ACCRA9
loop_
_citation_author_citation_id
_citation_author_name
primary 'Vos, A.'
primary 'Olthof, R.'
primary 'van Bolhuis, F.'
primary 'Botterweg, R.'
_cell_length_a 8.895(4)
_cell_length_b 17.44(2)
_cell_length_c 6.779(4)
_cell_angle_alpha 90.
_cell_angle_beta 92.73(10)
_cell_angle_gamma 90.
_cell_volume 1050.42
_cell_formula_units_Z 4
_space_group_name_H-M_alt 'P 1 21/n 1'
_space_group_IT_number 14
loop_
_space_group_symop_id
_space_group_symop_operation_xyz
1 '-x+1/2, y+1/2, -z+1/2'
2 '-x, -y, -z'
3 'x+1/2, -y+1/2, z+1/2'
4 'x, y, z'
loop_
_atom_type_symbol
_atom_type_oxidation_number
P2+ 2
P5+ 5
S2- -2
loop_
_atom_site_label
_atom_site_type_symbol
_atom_site_symmetry_multiplicity
_atom_site_Wyckoff_symbol
_atom_site_fract_x
_atom_site_fract_y
_atom_site_fract_z
_atom_site_B_iso_or_equiv
_atom_site_occupancy
P1 P2+ 4 e 0.2839 0.3793 0.7067 . 1.
P2 P2+ 4 e 0.355 0.2939 0.4645 . 1.
P3 P5+ 4 e 0.2718 0.461 0.2724 . 1.
P4 P5+ 4 e -.0023 0.3332 0.4106 . 1.
S1 S2- 4 e 0.0459 0.4252 0.2217 . 1.
S2 S2- 4 e 0.3066 0.5447 0.0974 . 1.
S3 S2- 4 e -.2102 0.3065 0.3619 . 1.
S4 S2- 4 e 0.3059 0.4869 0.5699 . 1.
S5 S2- 4 e 0.4145 0.3677 0.236 . 1.
S6 S2- 4 e 0.1482 0.2447 0.3652 . 1.
S7 S2- 4 e 0.0481 0.364 0.7024 . 1.
loop_
_atom_site_aniso_label
_atom_site_aniso_type_symbol
_atom_site_aniso_U_11
_atom_site_aniso_U_22
_atom_site_aniso_U_33
_atom_site_aniso_U_12
_atom_site_aniso_U_13
_atom_site_aniso_U_23
P1 P2+ 0.0434 0.0464 0.027 -0.0023 -0.0013 -0.0065
P2 P2+ 0.0347 0.0384 0.0378 0.0024 0.0022 -0.0142
P3 P5+ 0.0334 0.0368 0.0353 -0.0001 0.0006 0.0034
P4 P5+ 0.033 0.0346 0.0339 -0.0025 0.0005 -0.0084
S1 S2- 0.0336 0.0404 0.0384 0.0092 0.0001 -0.0161
S2 S2- 0.0485 0.0442 0.0533 0.0177 -0.0014 0.0118
S3 S2- 0.0331 0.0511 0.0524 -0.0031 -0.0011 -0.0079
S4 S2- 0.045 0.0404 0.0399 -0.0113 -0.0013 -0.0013
S5 S2- 0.0355 0.0425 0.0365 0.0009 0.0023 0.007
S6 S2- 0.0399 0.032 0.0415 -0.0083 0.0003 -0.0042
S7 S2- 0.0432 0.0426 0.03 -0.0048 -0.0013 0.0081
#End of TTdata_23842-ICSD