
#(C) 2021 by FIZ Karlsruhe - Leibniz Institute for Information Infrastructure.  All rights reserved.
data_97004-ICSD
_database_code_ICSD 97004
_audit_creation_date 2004-10-01
_audit_update_record 2006-04-01
_chemical_name_common 'Zirconium oxide'
_chemical_formula_structural 'Zr O2'
_chemical_formula_sum 'O2 Zr1'
_chemical_name_structure_type Zirconia#ZrO2(HT)
_exptl_crystal_density_diffrn 6.1
_citation_title

;
Multigram scale synthesis and characterization of monodisperse tetragonal
zirconia nanocrystals
;
loop_
_citation_id
_citation_journal_full
_citation_year
_citation_journal_volume
_citation_page_first
_citation_page_last
_citation_journal_id_ASTM
primary 'Journal of the American Chemical Society' 2003 125 6553 6557 JACSAT
loop_
_citation_author_citation_id
_citation_author_name
primary 'Joo Jin'
primary 'Yu Taek-Yung'
primary 'Kim Young Woon'
primary 'Park Hyun Min'
primary 'Wu Fan-Xin'
primary 'Zhang Jin Z.'
primary 'Hyeon Taeghwan'
_cell_length_a 3.598(1)
_cell_length_b 3.598(1)
_cell_length_c 5.185(3)
_cell_angle_alpha 90
_cell_angle_beta 90
_cell_angle_gamma 90
_cell_volume 67.12
_cell_formula_units_Z 2
_space_group_name_H-M_alt 'P 42/n m c Z'
_space_group_IT_number 137
loop_
_space_group_symop_id
_space_group_symop_operation_xyz
1 'y+1/2, x+1/2, -z+1/2'
2 '-y, x+1/2, -z+1/2'
3 'y+1/2, -x, -z+1/2'
4 '-y, -x, -z+1/2'
5 'x+1/2, y+1/2, -z'
6 '-x, y+1/2, -z'
7 'x+1/2, -y, -z'
8 '-x, -y, -z'
9 '-y+1/2, -x+1/2, z+1/2'
10 'y, -x+1/2, z+1/2'
11 '-y+1/2, x, z+1/2'
12 'y, x, z+1/2'
13 '-x+1/2, -y+1/2, z'
14 'x, -y+1/2, z'
15 '-x+1/2, y, z'
16 'x, y, z'
loop_
_atom_type_symbol
_atom_type_oxidation_number
Zr4+ 4
O2- -2
loop_
_atom_site_label
_atom_site_type_symbol
_atom_site_symmetry_multiplicity
_atom_site_Wyckoff_symbol
_atom_site_fract_x
_atom_site_fract_y
_atom_site_fract_z
_atom_site_B_iso_or_equiv
_atom_site_occupancy
Zr1 Zr4+ 2 b 0.75 0.25 0.25 0.96 1.
O1 O2- 4 d 0.25 0.25 0.4465 0.82 1.
#End of TTdata_97004-ICSD