
#(C) 2021 by FIZ Karlsruhe - Leibniz Institute for Information Infrastructure.  All rights reserved.
data_16140-ICSD
_database_code_ICSD 16140
_audit_creation_date 1984-09-04
_audit_update_record 2012-02-01
_chemical_name_common 'Tetraphosphorus pentaselenide'
_chemical_formula_structural 'P4 Se5'
_chemical_formula_sum 'P4 Se5'
_chemical_name_structure_type P4Se5
_exptl_crystal_density_diffrn 3.61
_citation_title
'Crystal and molecular structure of tetraphosphorus pentaselenide'
loop_
_citation_id
_citation_journal_full
_citation_year
_citation_journal_volume
_citation_page_first
_citation_page_last
_citation_journal_id_ASTM
primary
'Journal of the Chemical Society [Section] A: Inorganic, Physical, Theoretical' 1971 1971 245 248 JCSIAP
loop_
_citation_author_citation_id
_citation_author_name
primary 'Penney, G.J.'
primary 'Sheldrick, G.M.'
_cell_length_a 12.79(2)
_cell_length_b 11.19(2)
_cell_length_c 6.66(2)
_cell_angle_alpha 90.
_cell_angle_beta 90.
_cell_angle_gamma 90.
_cell_volume 953.18
_cell_formula_units_Z 4
_space_group_name_H-M_alt 'P n 21 a'
_space_group_IT_number 33
loop_
_space_group_symop_id
_space_group_symop_operation_xyz
1 'x+1/2, y, -z+1/2'
2 '-x+1/2, y+1/2, z+1/2'
3 '-x, y+1/2, -z'
4 'x, y, z'
loop_
_atom_type_symbol
_atom_type_oxidation_number
Se0+ 0
P0+ 0
loop_
_atom_site_label
_atom_site_type_symbol
_atom_site_symmetry_multiplicity
_atom_site_Wyckoff_symbol
_atom_site_fract_x
_atom_site_fract_y
_atom_site_fract_z
_atom_site_B_iso_or_equiv
_atom_site_occupancy
Se1 Se0+ 4 a 0.8112(4) 0.6370(7) 0.3610(8) . 1.
Se2 Se0+ 4 a 0.7170(3) 0.5 0.7923(9) . 1.
Se3 Se0+ 4 a 0.7311(4) 0.3388(7) 0.3265(9) . 1.
Se4 Se0+ 4 a 0.9308(4) 0.2871(7) 0.7160(8) . 1.
Se5 Se0+ 4 a 0.9878(4) 0.2537(7) 0.1767(8) . 1.
P1 P0+ 4 a 0.9428(9) 0.5348(12) 0.4883(22) . 1.
P2 P0+ 4 a 0.8905(10) 0.4806(10) 0.8049(16) . 1.
P3 P0+ 4 a 0.9017(8) 0.3480(11) 0.3985(19) . 1.
P4 P0+ 4 a 0.6784(8) 0.5162(11) 0.4563(20) . 1.
loop_
_atom_site_aniso_label
_atom_site_aniso_type_symbol
_atom_site_aniso_U_11
_atom_site_aniso_U_22
_atom_site_aniso_U_33
_atom_site_aniso_U_12
_atom_site_aniso_U_13
_atom_site_aniso_U_23
Se1 Se0+ 0.0046(3) 0.0014(2) 0.0031(3) 0.0008(2) -.0009(2) 0.0002(2)
Se2 Se0+ 0.0036(3) 0.0028(3) 0.0036(3) -.0003(2) 0.0007(2) 0.0010(2)
Se3 Se0+ 0.0032(2) 0.0019(2) 0.0042(4) -.0013(2) -.0003(2) 0.0002(2)
Se4 Se0+ 0.0039(2) 0.0014(2) 0.0026(2) 0.0002(2) 0.0001(1) 0.0005(2)
Se5 Se0+ 0.0038(3) 0.0022(2) 0.0025(3) -.0002(2) -.0002(2) 0.0003(2)
P1 P0+ 0.0033(6) 0.0016(5) 0.0041(7) -.0003(5) -.0007(6) 0.0000(5)
P2 P0+ 0.0044(6) 0.0014(5) 0.0020(5) 0.0006(4) 0.0004(5) 0.0012(5)
P3 P0+ 0.0026(5) 0.0012(4) 0.0031(6) 0.0000(5) 0.0001(5) 0.0001(4)
P4 P0+ 0.0029(5) 0.0013(5) 0.0036(7) -.0006(5) -.0001(5) 0.0010(5)
#End of TTdata_16140-ICSD