
#(C) 2021 by FIZ Karlsruhe - Leibniz Institute for Information Infrastructure.  All rights reserved.
data_24407-ICSD
_database_code_ICSD 24407
_audit_creation_date 1981-12-31
_audit_update_record 2012-02-01
_chemical_name_common 'Tetraphosphorus(III) oxide'
_chemical_formula_structural 'P4 O6'
_chemical_formula_sum 'O6 P4'
_chemical_name_structure_type P4O6
_exptl_crystal_density_diffrn 2.2
_citation_title
'Struktureigenschaften der Phosphoroxide im festen Aggregatzustand'
loop_
_citation_id
_citation_journal_full
_citation_year
_citation_journal_volume
_citation_page_first
_citation_page_last
_citation_journal_id_ASTM
primary 'Angewandte Chemie' 1981 93 1023 1024 ANCEAD
loop_
_citation_author_citation_id
_citation_author_name
primary 'Jansen, M.'
primary 'Voss, M.'
primary 'Deiseroth, H.J.'
_cell_length_a 6.430(2)
_cell_length_b 7.887(3)
_cell_length_c 6.812(3)
_cell_angle_alpha 90.
_cell_angle_beta 106.01(2)
_cell_angle_gamma 90.
_cell_volume 332.06
_cell_formula_units_Z 2
_space_group_name_H-M_alt 'P 1 21/m 1'
_space_group_IT_number 11
loop_
_space_group_symop_id
_space_group_symop_operation_xyz
1 'x, -y+1/2, z'
2 '-x, -y, -z'
3 '-x, y+1/2, -z'
4 'x, y, z'
loop_
_atom_type_symbol
_atom_type_oxidation_number
P3+ 3
O2- -2
loop_
_atom_site_label
_atom_site_type_symbol
_atom_site_symmetry_multiplicity
_atom_site_Wyckoff_symbol
_atom_site_fract_x
_atom_site_fract_y
_atom_site_fract_z
_atom_site_B_iso_or_equiv
_atom_site_occupancy
P1 P3+ 2 e 0.7413(2) 0.25 0.4892(2) . 1.
P2 P3+ 2 e 0.3524(2) 0.25 0.6415(3) . 1.
P3 P3+ 4 f 0.7435(2) 0.4372(2) 0.8645(2) . 1.
O1 O2- 2 e 0.4775(6) 0.25 0.4597(6) . 1.
O2 O2- 4 f 0.4788(4) 0.4103(5) 0.7803(5) . 1.
O3 O2- 4 f 0.8077(5) 0.4105(4) 0.6499(4) . 1.
O4 O2- 2 e 0.8116(7) 0.25 0.9708(6) . 1.
loop_
_atom_site_aniso_label
_atom_site_aniso_type_symbol
_atom_site_aniso_U_11
_atom_site_aniso_U_22
_atom_site_aniso_U_33
_atom_site_aniso_U_12
_atom_site_aniso_U_13
_atom_site_aniso_U_23
P1 P3+ 0.0465(8) 0.0664(10) 0.0620(9) 0 0.0274(6) 0
P2 P3+ 0.0348(7) 0.0677(11) 0.0767(11) 0 0.0239(6) 0
P3 P3+ 0.0454(6) 0.0891(10) 0.0734(8) -.0064(5) 0.0239(5) -.0171(6)
O1 O2- 0.0421(19) 0.0636(26) 0.0688(25) 0 0.0179(18) 0
O2 O2- 0.0422(13) 0.0783(22) 0.0765(18) 0.0013(13) 0.0286(12) -.0113(16)
O3 O2- 0.0457(14) 0.0661(20) 0.0780(19) -.0072(12) 0.0269(12) -.0063(14)
O4 O2- 0.045(2) 0.1072(40) 0.0612(24) 0 0.0158(18) 0
#End of TTdata_24407-ICSD