
#(C) 2021 by FIZ Karlsruhe - Leibniz Institute for Information Infrastructure.  All rights reserved.
data_300205-ICSD
_database_code_ICSD 300205
_audit_creation_date 1991-07-10
_audit_update_record 2005-10-01
_chemical_name_common 'Phosphorus triphosphorus(V) oxide'
_chemical_formula_structural 'P4 O9'
_chemical_formula_sum 'O9 P4'
_chemical_name_structure_type P4O9
_exptl_crystal_density_diffrn 2.64
_citation_title 'Crystal structure of tetraphosphorus nonaoxide'
loop_
_citation_id
_citation_journal_full
_citation_year
_citation_journal_volume
_citation_page_first
_citation_page_last
_citation_journal_id_ASTM
primary 'Zeitschrift fuer Kristallographie' 1991 197 247 248 ZEKRDZ
loop_
_citation_author_citation_id
_citation_author_name
primary 'Lueer, B.'
primary 'Jansen, M.'
_cell_length_a 10.0057(2)
_cell_length_b 10.0057(2)
_cell_length_c 10.0057(2)
_cell_angle_alpha 57.947(2)
_cell_angle_beta 57.947(2)
_cell_angle_gamma 57.947(2)
_cell_volume 674.95
_cell_formula_units_Z 4
_space_group_name_H-M_alt 'R -3 c R'
_space_group_IT_number 167
loop_
_space_group_symop_id
_space_group_symop_operation_xyz
1 '-x+1/2, -z+1/2, -y+1/2'
2 '-z+1/2, -y+1/2, -x+1/2'
3 '-y+1/2, -x+1/2, -z+1/2'
4 'x+1/2, z+1/2, y+1/2'
5 'z+1/2, y+1/2, x+1/2'
6 'y+1/2, x+1/2, z+1/2'
7 '-z, -x, -y'
8 '-y, -z, -x'
9 '-x, -y, -z'
10 'z, x, y'
11 'y, z, x'
12 'x, y, z'
loop_
_atom_type_symbol
_atom_type_oxidation_number
P3+ 3
P5+ 5
O2- -2
loop_
_atom_site_label
_atom_site_type_symbol
_atom_site_symmetry_multiplicity
_atom_site_Wyckoff_symbol
_atom_site_fract_x
_atom_site_fract_y
_atom_site_fract_z
_atom_site_B_iso_or_equiv
_atom_site_occupancy
P1 P3+ 4 c 0.4257(1) 0.4257(1) 0.4257(1) . 1.
P2 P5+ 12 f 0.19904(6) 0.27058(6) 0.51855(7) . 1.
O1 O2- 12 f 0.2745(2) 0.3412(2) 0.5606(2) . 1.
O2 O2- 12 f 0.1444(2) 0.4258(2) 0.3615(2) . 1.
O3 O2- 12 f 0.0680(2) 0.2049(2) 0.6496(2) . 1.
#End of TTdata_300205-ICSD