
#(C) 2021 by FIZ Karlsruhe - Leibniz Institute for Information Infrastructure.  All rights reserved.
data_79698-ICSD
_database_code_ICSD 79698
_audit_creation_date 1996-10-14
_chemical_name_common 'Phosphorus(V) oxide - o''
_chemical_formula_structural 'P2 O5'
_chemical_formula_sum 'O5 P2'
_chemical_name_structure_type P2O5(oP28)
_exptl_crystal_density_diffrn 2.93
_diffrn_ambient_temperature 233.
_citation_title 'Phosphorus pentoxide at 233K'
loop_
_citation_id
_citation_journal_full
_citation_year
_citation_journal_volume
_citation_page_first
_citation_page_last
_citation_journal_id_ASTM
primary 'Acta Crystallographica, Section C: Crystal Structure Communications'
1995 51 1049 1050 ACSCEE
loop_
_citation_author_citation_id
_citation_author_name
primary 'Stachel, D.'
primary 'Svoboda, I.'
primary 'Fuess, H.'
_cell_length_a 9.193(9)
_cell_length_b 4.890(4)
_cell_length_c 7.162(7)
_cell_angle_alpha 90.
_cell_angle_beta 90.
_cell_angle_gamma 90.
_cell_volume 321.96
_cell_formula_units_Z 4
_space_group_name_H-M_alt 'P n m a'
_space_group_IT_number 62
loop_
_space_group_symop_id
_space_group_symop_operation_xyz
1 'x+1/2, y, -z+1/2'
2 'x, -y+1/2, z'
3 '-x+1/2, y+1/2, z+1/2'
4 '-x, -y, -z'
5 '-x+1/2, -y, z+1/2'
6 '-x, y+1/2, -z'
7 'x+1/2, -y+1/2, -z+1/2'
8 'x, y, z'
loop_
_atom_type_symbol
_atom_type_oxidation_number
P5+ 5
O2- -2
loop_
_atom_site_label
_atom_site_type_symbol
_atom_site_symmetry_multiplicity
_atom_site_Wyckoff_symbol
_atom_site_fract_x
_atom_site_fract_y
_atom_site_fract_z
_atom_site_B_iso_or_equiv
_atom_site_occupancy
P1 P5+ 4 c 0.40207(10) 0.25 0.34571(13) . 1.
P2 P5+ 4 c 0.24238(10) 0.25 0.70848(13) . 1.
O1 O2- 4 c 0.2762(3) 0.25 0.4930(3) . 1.
O2 O2- 4 c 0.5517(3) 0.25 0.4104(4) . 1.
O3 O2- 4 c 0.3612(3) 0.25 0.8389(4) . 1.
O4 O2- 8 d 0.3642(2) 0.0014(3) 0.2162(2) . 1.
loop_
_atom_site_aniso_label
_atom_site_aniso_type_symbol
_atom_site_aniso_U_11
_atom_site_aniso_U_22
_atom_site_aniso_U_33
_atom_site_aniso_U_12
_atom_site_aniso_U_13
_atom_site_aniso_U_23
P1 P5+ 0.0069(3) 0.0043(4) 0.0053(3) 0 0.0000(3) 0
P2 P5+ 0.0075(4) 0.0052(4) 0.0057(4) 0 0.0005(3) 0
O1 O2- 0.0104(11) 0.0098(11) 0.0054(10) 0 0.0032(8) 0
O2 O2- 0.0092(11) 0.0088(11) 0.0106(10) 0 -.0030(9) 0
O3 O2- 0.0094(10) 0.0129(12) 0.0093(10) 0 -.0021(9) 0
O4 O2- 0.0106(7) 0.0050(8) 0.0072(7) -.0011(6) 0.0006(6) -.0014(6)
#End of TTdata_79698-ICSD