
#(C) 2021 by FIZ Karlsruhe - Leibniz Institute for Information Infrastructure.  All rights reserved.
data_73173-ICSD
_database_code_ICSD 73173
_audit_creation_date 1994-06-30
_audit_update_record 2013-02-01
_chemical_name_common 'Disodium persulfide - beta, HT'
_chemical_formula_structural 'Na2 S2'
_chemical_formula_sum 'Na2 S2'
_chemical_name_structure_type Li2O2
_exptl_crystal_density_diffrn 2.05
_citation_title

;
Zur Kenntnis der Dialkalimetalldichalkogenide beta-Na2 S2, K2 S2, alpha-Rb2
S2, beta-Rb2 S22, K2 Se2, Rb2 Se2, alpha-K2 Te2, beta-K2 Te2 und Rb2 Te2
;
loop_
_citation_id
_citation_journal_full
_citation_year
_citation_journal_volume
_citation_page_first
_citation_page_last
_citation_journal_id_ASTM
primary 'Zeitschrift fuer Anorganische und Allgemeine Chemie (1950) (DE)' 1993
619 476 488 ZAACAB
loop_
_citation_author_citation_id
_citation_author_name
primary 'Boettcher, P.'
primary 'Getzschmann, J.'
primary 'Keller, R.'
_cell_length_a 4.489(2)
_cell_length_b 4.489(2)
_cell_length_c 10.227(2)
_cell_angle_alpha 90.
_cell_angle_beta 90.
_cell_angle_gamma 120.
_cell_volume 178.48
_cell_formula_units_Z 2
_space_group_name_H-M_alt 'P 63/m m c'
_space_group_IT_number 194
loop_
_space_group_symop_id
_space_group_symop_operation_xyz
1 'x, x-y, -z+1/2'
2 '-x+y, y, -z+1/2'
3 '-y, -x, -z+1/2'
4 '-x+y, -x, -z+1/2'
5 '-y, x-y, -z+1/2'
6 'x, y, -z+1/2'
7 '-x, -x+y, z+1/2'
8 'x-y, -y, z+1/2'
9 'y, x, z+1/2'
10 'x-y, x, z+1/2'
11 'y, -x+y, z+1/2'
12 '-x, -y, z+1/2'
13 '-x, -x+y, -z'
14 'x-y, -y, -z'
15 'y, x, -z'
16 'x-y, x, -z'
17 'y, -x+y, -z'
18 '-x, -y, -z'
19 'x, x-y, z'
20 '-x+y, y, z'
21 '-y, -x, z'
22 '-x+y, -x, z'
23 '-y, x-y, z'
24 'x, y, z'
loop_
_atom_type_symbol
_atom_type_oxidation_number
Na1+ 1
S1- -1
loop_
_atom_site_label
_atom_site_type_symbol
_atom_site_symmetry_multiplicity
_atom_site_Wyckoff_symbol
_atom_site_fract_x
_atom_site_fract_y
_atom_site_fract_z
_atom_site_B_iso_or_equiv
_atom_site_occupancy
Na1 Na1+ 2 a 0 0 0 . 1.
Na2 Na1+ 2 c 0.3333 0.6667 0.25 . 1.
S1 S1- 4 f 0.3333 0.6667 0.6445(1) . 1.
loop_
_atom_site_aniso_label
_atom_site_aniso_type_symbol
_atom_site_aniso_U_11
_atom_site_aniso_U_22
_atom_site_aniso_U_33
_atom_site_aniso_U_12
_atom_site_aniso_U_13
_atom_site_aniso_U_23
Na1 Na1+ 0.0230(4) 0.0230(4) 0.0228(4) 0.0115(2) 0 0
Na2 Na1+ 0.0171(4) 0.0171(4) 0.0283(7) 0.0086(2) 0 0
S1 S1- 0.0176(2) 0.0176(2) 0.0154(3) 0.0088(1) 0 0
#End of TTdata_73173-ICSD