
#(C) 2021 by FIZ Karlsruhe - Leibniz Institute for Information Infrastructure.  All rights reserved.
data_2586-ICSD
_database_code_ICSD 2586
_audit_creation_date 1980-01-01
_audit_update_record 2012-08-01
_chemical_name_common 'Disodium quartetto-tetrasulfide'
_chemical_formula_structural 'Na2 S4'
_chemical_formula_sum 'Na2 S4'
_chemical_name_structure_type Na2S4
_exptl_crystal_density_diffrn 2.13
_citation_title 'The crystal structure of sodium tetrasulfide, Na2 S4'
loop_
_citation_id
_citation_journal_full
_citation_year
_citation_journal_volume
_citation_page_first
_citation_page_last
_citation_journal_id_ASTM
primary

;
Acta Crystallographica, Section B: Structural Crystallography and Crystal
Chemistry
; 1973 29 1463 1469 ACBCAR
loop_
_citation_author_citation_id
_citation_author_name
primary 'Tegman, R.'
_cell_length_a 9.5965(3)
_cell_length_b 9.5965(3)
_cell_length_c 11.7885(6)
_cell_angle_alpha 90.
_cell_angle_beta 90.
_cell_angle_gamma 90.
_cell_volume 1085.64
_cell_formula_units_Z 8
_space_group_name_H-M_alt 'I -4 2 d'
_space_group_IT_number 122
loop_
_space_group_symop_id
_space_group_symop_operation_xyz
1 '-y, -x+1/2, z+1/4'
2 'y, -x, -z'
3 'y, x+1/2, z+1/4'
4 '-y, x, -z'
5 'x, -y+1/2, -z+1/4'
6 '-x, -y, z'
7 '-x, y+1/2, -z+1/4'
8 'x, y, z'
9 '-y+1/2, -x, z+3/4'
10 'y+1/2, -x+1/2, -z+1/2'
11 'y+1/2, x, z+3/4'
12 '-y+1/2, x+1/2, -z+1/2'
13 'x+1/2, -y, -z+3/4'
14 '-x+1/2, -y+1/2, z+1/2'
15 '-x+1/2, y, -z+3/4'
16 'x+1/2, y+1/2, z+1/2'
loop_
_atom_type_symbol
_atom_type_oxidation_number
Na1+ 1
S1- -1
S0+ 0
loop_
_atom_site_label
_atom_site_type_symbol
_atom_site_symmetry_multiplicity
_atom_site_Wyckoff_symbol
_atom_site_fract_x
_atom_site_fract_y
_atom_site_fract_z
_atom_site_B_iso_or_equiv
_atom_site_occupancy
Na1 Na1+ 8 c 0 0 0.16953(10) . 1.
Na2 Na1+ 8 d 0.27647(12) 0.25 0.125 . 1.
S1 S1- 16 e 0.03373(3) 0.24952(4) 0.29644 . 1.
S2 S0+ 16 e 0.14693(4) 0.11600(4) 0.39956(3) . 1.
loop_
_atom_site_aniso_label
_atom_site_aniso_type_symbol
_atom_site_aniso_beta_11
_atom_site_aniso_beta_22
_atom_site_aniso_beta_33
_atom_site_aniso_beta_12
_atom_site_aniso_beta_13
_atom_site_aniso_beta_23
Na1 Na1+ 0.0056(1) 0.00719(11) 0.00527(7) -.00068(9) 0 0
Na2 Na1+ 0.00926(13) 0.00488(8) 0.00431(6) 0 -.00010(6) 0
S1 S1- 0.00441(3) 0.00513(3) 0.00306(2) 0.00005(3) 0.00038(2) 0.00002(2)
S2 S0+ 0.00393(3) 0.00539(3) 0.00338(2) -.00071(3) 0.00110(2) 0.00001(2)
#End of TTdata_2586-ICSD