
#(C) 2021 by FIZ Karlsruhe - Leibniz Institute for Information Infrastructure.  All rights reserved.
data_121566-ICSD
_database_code_ICSD 121566
_audit_creation_date 2021-08-01
_chemical_name_common 'Trisodium tetrathiophosphate(V)'
_chemical_formula_structural 'Na3 P S4'
_chemical_formula_sum 'Na3 P1 S4'
_chemical_name_structure_type Na3(PS4)
_exptl_crystal_density_diffrn 2.2
_citation_title

;
Under pressure. Mechanochemical effects on structure and ion conduction in the
sodium-ion solid electrolyte Na$_3$PS$_4$
;
loop_
_citation_id
_citation_journal_full
_citation_year
_citation_journal_volume
_citation_page_first
_citation_page_last
_citation_journal_id_ASTM
primary 'Journal of the American Chemical Society' 2020 142 18422 18436 JACSAT
loop_
_citation_author_citation_id
_citation_author_name
primary 'Famprikis, Theodosios'
primary 'Kudu, Ö. Ulaş'
primary 'Dawson, James A.'
primary 'Canepa, Pieremanuele'
primary 'Fauth, François'
primary 'Suard, Emmanuelle'
primary 'Zbiri, Mohamed'
primary 'Dambournet, Damien'
primary 'Borkiewicz, Olaf J.'
primary 'Bouyanfif, Houssny'
primary 'Emge, Steffen P.'
primary 'Cretu, Sorina'
primary 'Chotard, Jean-Noël'
primary 'Grey, Clare P.'
primary Zeier,
_cell_length_a 6.9617(2)
_cell_length_b 6.9617(2)
_cell_length_c 7.0919(3)
_cell_angle_alpha 90.
_cell_angle_beta 90.
_cell_angle_gamma 90.
_cell_volume 343.71
_cell_formula_units_Z 2
_space_group_name_H-M_alt 'P -4 21 c'
_space_group_IT_number 114
loop_
_space_group_symop_id
_space_group_symop_operation_xyz
1 'y+1/2, x+1/2, z+1/2'
2 'y, -x, -z'
3 '-y+1/2, -x+1/2, z+1/2'
4 '-y, x, -z'
5 'x+1/2, -y+1/2, -z+1/2'
6 '-x, -y, z'
7 '-x+1/2, y+1/2, -z+1/2'
8 'x, y, z'
loop_
_atom_type_symbol
_atom_type_oxidation_number
P5+ 5
S2- -2
Na1+ 1
loop_
_atom_site_label
_atom_site_type_symbol
_atom_site_symmetry_multiplicity
_atom_site_Wyckoff_symbol
_atom_site_fract_x
_atom_site_fract_y
_atom_site_fract_z
_atom_site_B_iso_or_equiv
_atom_site_occupancy
P1 P5+ 2 a 0 0 0 1.26(4) 1
S1 S2- 8 e 0.1862(1) 0.1535(1) 0.1655(2) 1.73(2) 1
Na1 Na1+ 4 d 0 0.5 0.0728(3) 3.79(6) 1
Na2 Na1+ 2 b 0 0 0.5 4.47(9) 1
#End of TTdata_121566-ICSD