
#(C) 2021 by FIZ Karlsruhe - Leibniz Institute for Information Infrastructure.  All rights reserved.
data_428764-ICSD
_database_code_ICSD 428764
_audit_creation_date 2015-08-01
_chemical_name_common 'Sodium heptaphosphide'
_chemical_formula_structural 'Na P7'
_chemical_formula_sum 'Na1 P7'
_chemical_name_structure_type LiP7
_exptl_crystal_density_diffrn 2.14
_diffrn_ambient_temperature 293.
_citation_title

;
Synthesis, structure, and properties of Na P7, a phosphorus-rich polyphosphide
;
loop_
_citation_id
_citation_journal_full
_citation_year
_citation_journal_volume
_citation_page_first
_citation_page_last
_citation_journal_id_ASTM
primary 'Zeitschrift fuer Anorganische und Allgemeine Chemie' 2015 641 1395 1399
ZAACAB
loop_
_citation_author_citation_id
_citation_author_name
primary 'Grotz, Carolin'
primary 'Koepf, Marianne'
primary 'Baumgartner, Maximilian'
primary 'Jantke, Laura-Alice'
primary 'Raudaschl-Sieber, Gabriele'
primary 'Faessler, Thomas F.'
primary 'Nilges, Tom'
_cell_length_a 14.2265(8)
_cell_length_b 14.2265(8)
_cell_length_c 14.6784(9)
_cell_angle_alpha 90.
_cell_angle_beta 90.
_cell_angle_gamma 90.
_cell_volume 2970.81
_cell_formula_units_Z 16
_space_group_name_H-M_alt 'I 41/a c d S'
_space_group_IT_number 142
loop_
_space_group_symop_id
_space_group_symop_operation_xyz
1 '-y+1/2, -x, z+1/4'
2 'y+1/2, -x, z+3/4'
3 '-y, -x, -z+1/2'
4 'y, -x, -z'
5 'y+1/2, x, z+1/4'
6 '-y+1/2, x, z+3/4'
7 'y, x, -z+1/2'
8 '-y, x, -z'
9 '-x, y+1/2, -z+3/4'
10 '-x, -y+1/2, -z+1/4'
11 '-x, y, z+1/2'
12 '-x, -y, z'
13 'x, -y+1/2, -z+3/4'
14 'x, y+1/2, -z+1/4'
15 'x, -y, z+1/2'
16 'x, y, z'
17 '-y, -x+1/2, z+3/4'
18 'y, -x+1/2, z+1/4'
19 '-y+1/2, -x+1/2, -z'
20 'y+1/2, -x+1/2, -z+1/2'
21 'y, x+1/2, z+3/4'
22 '-y, x+1/2, z+1/4'
23 'y+1/2, x+1/2, -z'
24 '-y+1/2, x+1/2, -z+1/2'
25 '-x+1/2, y, -z+1/4'
26 '-x+1/2, -y, -z+3/4'
27 '-x+1/2, y+1/2, z'
28 '-x+1/2, -y+1/2, z+1/2'
29 'x+1/2, -y, -z+1/4'
30 'x+1/2, y, -z+3/4'
31 'x+1/2, -y+1/2, z'
32 'x+1/2, y+1/2, z+1/2'
loop_
_atom_type_symbol
_atom_type_oxidation_number
P0+ -0.143
Na1+ 1
loop_
_atom_site_label
_atom_site_type_symbol
_atom_site_symmetry_multiplicity
_atom_site_Wyckoff_symbol
_atom_site_fract_x
_atom_site_fract_y
_atom_site_fract_z
_atom_site_U_iso_or_equiv
_atom_site_occupancy
P1 P0+ 16 e 0.75 -0.02668(4) 0.125 0.02474(19) 1
P2 P0+ 32 g 0.80928(3) 0.06803(3) 0.02185(3) 0.02085(13) 1
P3 P0+ 32 g 0.91398(3) 0.17346(3) 0.20090(3) 0.01924(13) 1
P4 P0+ 32 g 0.81738(3) 0.20656(3) 0.08800(3) 0.01809(12) 1
Na1 Na1+ 16 f 0.61263(5) -0.11263(5) 0 0.0350(3) 1
loop_
_atom_site_aniso_label
_atom_site_aniso_type_symbol
_atom_site_aniso_U_11
_atom_site_aniso_U_22
_atom_site_aniso_U_33
_atom_site_aniso_U_12
_atom_site_aniso_U_13
_atom_site_aniso_U_23
P1 P0+ 0.0386(4) 0.0168(3) 0.0188(3) 0 -0.0054(3) 0
P2 P0+ 0.0246(2) 0.0219(2) 0.0161(2) 0.00371(17) -0.00100(17) -0.00234(16)
P3 P0+ 0.0178(2) 0.0253(2) 0.0146(2) 0.00252(17) -0.00051(16) -0.00219(17)
P4 P0+ 0.0206(2) 0.0195(2) 0.01420(19) -0.00192(16) -0.00148(16) 0.00104(16)
Na1 Na1+ 0.0284(3) 0.0284(3) 0.0481(6) -0.0047(4) -0.0039(3) -0.0039(3)
#End of TTdata_428764-ICSD