
#(C) 2021 by FIZ Karlsruhe - Leibniz Institute for Information Infrastructure.  All rights reserved.
data_25837-ICSD
_database_code_ICSD 25837
_audit_creation_date 1980-01-01
_audit_update_record 2006-04-01
_chemical_name_common 'Pentasodium triphosphate - I, HT'
_chemical_formula_structural 'Na5 (P3 O10)'
_chemical_formula_sum 'Na5 O10 P3'
_exptl_crystal_density_diffrn 2.6
_citation_title
'The crystal structure of sodium triphosphate, Na5 P3 O10, phase I'
loop_
_citation_id
_citation_journal_full
_citation_year
_citation_journal_volume
_citation_page_first
_citation_page_last
_citation_journal_id_ASTM
primary 'Acta Crystallographica' 1960 13 263 269 ACCRA9
loop_
_citation_author_citation_id
_citation_author_name
primary 'Corbridge, D.E.C.'
_cell_length_a 9.61(3)
_cell_length_b 5.34(2)
_cell_length_c 19.73(5)
_cell_angle_alpha 90.
_cell_angle_beta 112.0(5)
_cell_angle_gamma 90.
_cell_volume 938.77
_cell_formula_units_Z 4
_space_group_name_H-M_alt 'C 1 2/c 1'
_space_group_IT_number 15
loop_
_space_group_symop_id
_space_group_symop_operation_xyz
1 'x, -y, z+1/2'
2 '-x, -y, -z'
3 '-x, y, -z+1/2'
4 'x, y, z'
5 'x+1/2, -y+1/2, z+1/2'
6 '-x+1/2, -y+1/2, -z'
7 '-x+1/2, y+1/2, -z+1/2'
8 'x+1/2, y+1/2, z'
loop_
_atom_type_symbol
_atom_type_oxidation_number
P5+ 5
O2- -2
Na1+ 1
loop_
_atom_site_label
_atom_site_type_symbol
_atom_site_symmetry_multiplicity
_atom_site_Wyckoff_symbol
_atom_site_fract_x
_atom_site_fract_y
_atom_site_fract_z
_atom_site_B_iso_or_equiv
_atom_site_occupancy
P1 P5+ 4 e 0 0.655 0.25 1.5 1.
P2 P5+ 8 f 0.07 0.523 0.4 1.5 1.
O1 O2- 8 f 0.143 0.806 0.267 2. 1.
O2 O2- 8 f 0.013 0.448 0.312 2. 1.
O3 O2- 8 f 0.98 0.329 0.42 2. 1.
O4 O2- 8 f 0.035 0.79 0.405 2. 1.
O5 O2- 8 f 0.232 0.533 0.438 2. 1.
Na1 Na1+ 4 a 0 0 0 2. 1.
Na2 Na1+ 8 f 0.357 0.552 0.326 2. 1.
Na3 Na1+ 8 f 0.258 0.965 0.429 2. 1.
#End of TTdata_25837-ICSD