
#(C) 2021 by FIZ Karlsruhe - Leibniz Institute for Information Infrastructure.  All rights reserved.
data_425582-ICSD
_database_code_ICSD 425582
_audit_creation_date 2016-02-01
_chemical_name_common 'Germanium disulfide'
_chemical_formula_structural 'Ge S2'
_chemical_formula_sum 'Ge1 S2'
_exptl_crystal_density_diffrn 3.44
_diffrn_ambient_temperature 298.
_citation_title 'High-pressure, high-temperature study of Ge S2 and Ge Se2'
loop_
_citation_id
_citation_journal_full
_citation_year
_citation_journal_volume
_citation_page_first
_citation_page_last
_citation_journal_id_ASTM
primary 'Inorganic Materials' 2014 50 768 774 INOMAF
loop_
_citation_author_citation_id
_citation_author_name
primary 'Kulikova, L.F.'
primary 'Lityagina, L.M.'
primary 'Zibrov, I.P.'
primary 'Dyuzheva, T.I.'
primary 'Nikolaev, N.A.'
primary 'Brazhkin, V.V.'
_cell_length_a 3.469057(18)
_cell_length_b 3.469057
_cell_length_c 10.97450(10)
_cell_angle_alpha 90.
_cell_angle_beta 90.
_cell_angle_gamma 90.
_cell_volume 132.07
_cell_formula_units_Z 2
_space_group_name_H-M_alt 'P 42/n m c Z'
_space_group_IT_number 137
loop_
_space_group_symop_id
_space_group_symop_operation_xyz
1 'y+1/2, x+1/2, -z+1/2'
2 '-y, x+1/2, -z+1/2'
3 'y+1/2, -x, -z+1/2'
4 '-y, -x, -z+1/2'
5 'x+1/2, y+1/2, -z'
6 '-x, y+1/2, -z'
7 'x+1/2, -y, -z'
8 '-x, -y, -z'
9 '-y+1/2, -x+1/2, z+1/2'
10 'y, -x+1/2, z+1/2'
11 '-y+1/2, x, z+1/2'
12 'y, x, z+1/2'
13 '-x+1/2, -y+1/2, z'
14 'x, -y+1/2, z'
15 '-x+1/2, y, z'
16 'x, y, z'
loop_
_atom_type_symbol
_atom_type_oxidation_number
Ge4+ 4
S2- -2
loop_
_atom_site_label
_atom_site_type_symbol
_atom_site_symmetry_multiplicity
_atom_site_Wyckoff_symbol
_atom_site_fract_x
_atom_site_fract_y
_atom_site_fract_z
_atom_site_U_iso_or_equiv
_atom_site_occupancy
Ge1 Ge4+ 2 a 0.75 0.25 0.75 0.02083(22) 1.
S1 S2- 4 d 0.25 0.25 0.37693(11) 0.01722(29) 1.
#End of TTdata_425582-ICSD