
#(C) 2021 by FIZ Karlsruhe - Leibniz Institute for Information Infrastructure.  All rights reserved.
data_74878-ICSD
_database_code_ICSD 74878
_audit_creation_date 1995-10-17
_audit_update_record 2006-04-01
_chemical_name_common 'Phosphorus selenide (4/4)'
_chemical_formula_structural 'P4 Se4'
_chemical_formula_sum 'P4 Se4'
_exptl_crystal_density_diffrn 3.49
_citation_title

;
Darstellung und Kristallstruktur des ersten polymeren Phosphorselenids
catena-(P4 Se4)x
;
loop_
_citation_id
_citation_journal_full
_citation_year
_citation_journal_volume
_citation_page_first
_citation_page_last
_citation_journal_id_ASTM
primary 'Zeitschrift fuer Anorganische und Allgemeine Chemie (1950) (DE)' 1994
620 1832 1836 ZAACAB
loop_
_citation_author_citation_id
_citation_author_name
primary 'Ruck, M.'
_cell_length_a 11.192(3)
_cell_length_b 7.282(2)
_cell_length_c 11.425(3)
_cell_angle_alpha 90.
_cell_angle_beta 115.91(2)
_cell_angle_gamma 90.
_cell_volume 837.54
_cell_formula_units_Z 4
_space_group_name_H-M_alt 'P 1 21/c 1'
_space_group_IT_number 14
loop_
_space_group_symop_id
_space_group_symop_operation_xyz
1 'x, -y+1/2, z+1/2'
2 '-x, -y, -z'
3 '-x, y+1/2, -z+1/2'
4 'x, y, z'
loop_
_atom_type_symbol
_atom_type_oxidation_number
Se0+ 0
P0+ 0
loop_
_atom_site_label
_atom_site_type_symbol
_atom_site_symmetry_multiplicity
_atom_site_Wyckoff_symbol
_atom_site_fract_x
_atom_site_fract_y
_atom_site_fract_z
_atom_site_B_iso_or_equiv
_atom_site_occupancy
Se1 Se0+ 4 e 0.39573(3) 0.71664(5) 0.38682(4) . 1.
Se2 Se0+ 4 e 0.06339(3) 0.60651(5) 0.17278(4) . 1.
Se3 Se0+ 4 e 0.30404(4) 0.44737(5) 0.07388(4) . 1.
Se4 Se0+ 4 e 0.17404(3) 0.08132(5) 0.19576(4) . 1.
P1 P0+ 4 e 0.32476(8) 0.8713(1) 0.1945(1) . 1.
P2 P0+ 4 e 0.17123(8) 0.6913(1) 0.05493(9) . 1.
P3 P0+ 4 e 0.33208(9) 0.3058(1) 0.2615(1) . 1.
P4 P0+ 4 e 0.2392(1) 0.4947(1) 0.3477(1) . 1.
loop_
_atom_site_aniso_label
_atom_site_aniso_type_symbol
_atom_site_aniso_U_11
_atom_site_aniso_U_22
_atom_site_aniso_U_33
_atom_site_aniso_U_12
_atom_site_aniso_U_13
_atom_site_aniso_U_23
Se1 Se0+ 0.0357(2) 0.0245(2) 0.0262(2) -0.0009(1) 0.0055(2) -0.0035(2)
Se2 Se0+ 0.0292(2) 0.0319(2) 0.0419(2) -0.0066(1) 0.0182(2) -0.0076(2)
Se3 Se0+ 0.0442(2) 0.0230(2) 0.0319(2) 0.0054(1) 0.0215(2) 0.0010(2)
Se4 Se0+ 0.0335(2) 0.0192(2) 0.0455(3) 0.0006(1) 0.0198(2) -0.0019(2)
P1 P0+ 0.0278(4) 0.0178(4) 0.0332(5) -0.0015(3) 0.0144(4) -0.0006(4)
P2 P0+ 0.0301(4) 0.0212(4) 0.0242(5) 0.0008(3) 0.0086(3) -0.0001(4)
P3 P0+ 0.0348(4) 0.0168(4) 0.0289(5) 0.0007(3) 0.0101(4) 0.0008(4)
P4 P0+ 0.0517(5) 0.0224(4) 0.0293(5) -0.0041(4) 0.0218(4) -0.0019(4)
#End of TTdata_74878-ICSD