
#(C) 2021 by FIZ Karlsruhe - Leibniz Institute for Information Infrastructure.  All rights reserved.
data_406048-ICSD
_database_code_ICSD 406048
_audit_creation_date 1997-11-10
_audit_update_record 2006-04-01
_chemical_name_common 'Phosphorus sulfide (4/3) - gamma'
_chemical_formula_structural 'P4 S3'
_chemical_formula_sum 'P4 S3'
_exptl_crystal_density_diffrn 2.1
_diffrn_ambient_temperature 299.
_citation_title
'Gamma - P4 S3, eine neue Modifikation von Tetraphosphortrisulfid'
loop_
_citation_id
_citation_journal_full
_citation_year
_citation_journal_volume
_citation_page_first
_citation_page_last
_citation_journal_id_ASTM
primary 'Zeitschrift fuer Kristallographie' 1997 212 662 664 ZEKRDZ
loop_
_citation_author_citation_id
_citation_author_name
primary 'Mueller, U.'
primary 'Gruber, H.'
_cell_length_a 6.462(2)
_cell_length_b 10.921(3)
_cell_length_c 9.843(2)
_cell_angle_alpha 90.
_cell_angle_beta 90.
_cell_angle_gamma 90.
_cell_volume 694.64
_cell_formula_units_Z 4
_space_group_name_H-M_alt 'P b n m'
_space_group_IT_number 62
loop_
_space_group_symop_id
_space_group_symop_operation_xyz
1 '-x+1/2, y+1/2, z'
2 'x, y, -z+1/2'
3 'x+1/2, -y+1/2, z+1/2'
4 '-x, -y, -z'
5 'x+1/2, -y+1/2, -z'
6 '-x, -y, z+1/2'
7 '-x+1/2, y+1/2, -z+1/2'
8 'x, y, z'
loop_
_atom_type_symbol
_atom_type_oxidation_number
P1+ 1.5
S2- -2
loop_
_atom_site_label
_atom_site_type_symbol
_atom_site_symmetry_multiplicity
_atom_site_Wyckoff_symbol
_atom_site_fract_x
_atom_site_fract_y
_atom_site_fract_z
_atom_site_B_iso_or_equiv
_atom_site_occupancy
P1 P1+ 4 c 0.17633(13) 0.32744(7) 0.25 . 1.
P2 P1+ 8 d -.26678(10) 0.42840(6) 0.13647(7) . 1.
P3 P1+ 4 c -.10457(14) 0.57584(7) 0.25 . 1.
S1 S2- 8 d -.03040(11) 0.30599(5) 0.08744(7) . 1.
S2 S2- 4 c 0.20314(12) 0.51809(7) 0.25 . 1.
loop_
_atom_site_aniso_label
_atom_site_aniso_type_symbol
_atom_site_aniso_U_11
_atom_site_aniso_U_22
_atom_site_aniso_U_33
_atom_site_aniso_U_12
_atom_site_aniso_U_13
_atom_site_aniso_U_23
P1 P1+ 0.0356(5) 0.0290(4) 0.0725(6) 0.0061(3) 0 0
P2 P1+ 0.0363(4) 0.0654(5) 0.0398(4) 0.0008(3) 0.0071(3) 0.0005(2)
P3 P1+ 0.0445(5) 0.0328(5) 0.0557(5) 0.0113(3) 0 0
S1 S2- 0.0568(4) 0.0491(4) 0.0492(5) -0.0041(3) -0.0085(3) 0.0170(3)
S2 S2- 0.0340(5) 0.0302(4) 0.0721(6) -0.0049(3) 0 0
#End of TTdata_406048-ICSD