
#(C) 2021 by FIZ Karlsruhe - Leibniz Institute for Information Infrastructure.  All rights reserved.
data_40204-ICSD
_database_code_ICSD 40204
_audit_creation_date 1999-11-30
_audit_update_record 2007-04-01
_chemical_name_common 'Phosphorus selenide (4/3) - alpha''
_chemical_formula_structural 'P4 Se3'
_chemical_formula_sum 'P4 Se3'
_chemical_name_structure_type P4S3
_exptl_crystal_density_diffrn 3.21
_citation_title

;
A new polymorph of tetraphosphorus triselenide, alpha'P4 Se3: An x-ray, Raman,
and XPS study of the normal crystalline phases and a DSC study of the
crystalline and the orientationally disordered phases of P4 Se3
;
loop_
_citation_id
_citation_journal_full
_citation_year
_citation_journal_volume
_citation_page_first
_citation_page_last
_citation_journal_id_ASTM
primary 'Inorganic Chemistry' 1990 29 2889 2894 INOCAJ
loop_
_citation_author_citation_id
_citation_author_name
primary 'Rollo, J.R.'
primary 'Burns, G.R.'
primary 'Robinson, W.T.'
primary 'Clark, R.J.H.'
primary 'Dawes, H.M.'
primary 'Hursthouse, M.B.'
_cell_length_a 10.977(3)
_cell_length_b 9.845(3)
_cell_length_c 13.803(5)
_cell_angle_alpha 90.
_cell_angle_beta 90.
_cell_angle_gamma 90.
_cell_volume 1491.67
_cell_formula_units_Z 8
_space_group_name_H-M_alt 'P n m a'
_space_group_IT_number 62
loop_
_space_group_symop_id
_space_group_symop_operation_xyz
1 'x+1/2, y, -z+1/2'
2 'x, -y+1/2, z'
3 '-x+1/2, y+1/2, z+1/2'
4 '-x, -y, -z'
5 '-x+1/2, -y, z+1/2'
6 '-x, y+1/2, -z'
7 'x+1/2, -y+1/2, -z+1/2'
8 'x, y, z'
loop_
_atom_type_symbol
_atom_type_oxidation_number
Se0+ 0
P0+ 0
loop_
_atom_site_label
_atom_site_type_symbol
_atom_site_symmetry_multiplicity
_atom_site_Wyckoff_symbol
_atom_site_fract_x
_atom_site_fract_y
_atom_site_fract_z
_atom_site_U_iso_or_equiv
_atom_site_occupancy
Se1 Se0+ 8 d -.5568(1) 0.0761(2) 0.8665(1) 0.052(1) 1.
Se2 Se0+ 4 c -.3311(2) 0.25 0.9812(1) 0.047(1) 1.
Se3 Se0+ 8 d -.1538(1) 0.5769(2) 0.9777(1) 0.047(1) 1.
Se4 Se0+ 4 c 0.0674(2) 0.75 0.8554(1) 0.048(1) 1.
P1 P0+ 8 d -.4270(4) 0.1377(4) 0.7503(3) 0.053(1) 1.
P2 P0+ 4 c -.2781(4) 0.25 0.8246(4) 0.054(2) 1.
P3 P0+ 4 c -.5331(4) 0.25 0.9696(3) 0.041(2) 1.
P4 P0+ 8 d -.2379(3) 0.6371(4) 0.8375(3) 0.048(1) 1.
P5 P0+ 4 c -.0948(5) 0.75 0.7584(4) 0.055(2) 1.
P6 P0+ 4 c -.0241(4) 0.75 0.0000(3) 0.040(2) 1.
#End of TTdata_40204-ICSD