
#(C) 2021 by FIZ Karlsruhe - Leibniz Institute for Information Infrastructure.  All rights reserved.
data_423062-ICSD
_database_code_ICSD 423062
_audit_creation_date 2012-02-01
_chemical_name_common 'catena-diphosphorus heptasulfide - beta'
_chemical_formula_structural 'P2 S7'
_chemical_formula_sum 'P2 S7'
_exptl_crystal_density_diffrn 2.21
_diffrn_ambient_temperature 293.
_citation_title

;
Rational syntheses and structural characterization of sulfur-rich phosphorus
polysulfides: alpha - P2 S7 and beta - P2 S7
;
loop_
_citation_id
_citation_journal_full
_citation_year
_citation_journal_volume
_citation_page_first
_citation_page_last
_citation_journal_id_ASTM
primary 'Angewandte Chemie, International Edition' 2011 50 10996 11000 ACIEF5
loop_
_citation_author_citation_id
_citation_author_name
primary 'Roedl, T.'
primary 'Weihrich, R.'
primary 'Wack, J.'
primary 'Senker, J.'
primary 'Pfitzner, A.'
_cell_length_a 6.032(3)
_cell_length_b 6.512(2)
_cell_length_c 11.095(5)
_cell_angle_alpha 82.62(4)
_cell_angle_beta 89.20(5)
_cell_angle_gamma 85.28(4)
_cell_volume 430.74
_cell_formula_units_Z 2
_space_group_name_H-M_alt 'P -1'
_space_group_IT_number 2
loop_
_space_group_symop_id
_space_group_symop_operation_xyz
1 '-x, -y, -z'
2 'x, y, z'
loop_
_atom_type_symbol
_atom_type_oxidation_number
P5+ 5
S1- -1
S0+ 0
S1- -1
S2- -2
loop_
_atom_site_label
_atom_site_type_symbol
_atom_site_symmetry_multiplicity
_atom_site_Wyckoff_symbol
_atom_site_fract_x
_atom_site_fract_y
_atom_site_fract_z
_atom_site_U_iso_or_equiv
_atom_site_occupancy
P1 P5+ 2 i 0.05479(9) 0.16935(11) 0.06358(5) 0.02448(14) 1
P2 P5+ 2 i 0.37009(9) 0.19658(11) 0.50519(5) 0.02497(14) 1
S1 S1- 2 i 0.85332(10) 0.22643(11) 0.21368(5) 0.03144(15) 1
S2 S0+ 2 i 0.62823(9) 0.00711(11) 0.21394(5) 0.03024(15) 1
S3 S1- 2 i 0.23916(10) 0.24944(11) 0.67587(5) 0.03015(15) 1
S4 S2- 2 i 0.15562(10) 0.84833(10) 0.08524(5) 0.02796(15) 1
S5 S2- 2 i 0.71355(9) 0.10084(11) 0.52712(6) 0.02900(15) 1
S6 S2- 2 i 0.28317(10) 0.35973(11) 0.04627(6) 0.03356(16) 1
S7 S2- 2 i 0.27604(11) 0.42817(12) 0.38831(6) 0.03640(17) 1
loop_
_atom_site_aniso_label
_atom_site_aniso_type_symbol
_atom_site_aniso_U_11
_atom_site_aniso_U_22
_atom_site_aniso_U_33
_atom_site_aniso_U_12
_atom_site_aniso_U_13
_atom_site_aniso_U_23
P1 P5+ 0.0258(3) 0.0228(4) 0.0250(3) -0.0038(2) 0.0021(2) -0.0027(2)
P2 P5+ 0.0256(3) 0.0234(4) 0.0257(3) -0.0021(2) 0.0019(2) -0.0026(2)
S1 S1- 0.0399(3) 0.0275(4) 0.0284(3) -0.0068(3) 0.0079(2) -0.0073(2)
S2 S0+ 0.0286(3) 0.0337(4) 0.0278(3) -0.0045(2) 0.0018(2) -0.0005(2)
S3 S1- 0.0343(3) 0.0253(4) 0.0304(3) -0.0003(2) 0.0076(2) -0.0044(2)
S4 S2- 0.0306(3) 0.0247(4) 0.0281(3) -0.0002(2) -0.0020(2) -0.0028(2)
S5 S2- 0.0251(3) 0.0270(4) 0.0361(3) -0.0045(2) 0.0021(2) -0.0073(2)
S6 S2- 0.0289(3) 0.0267(4) 0.0451(4) -0.0075(2) -0.0001(2) -0.0013(3)
S7 S2- 0.0452(4) 0.0274(4) 0.0351(3) -0.0025(3) -0.0082(3) 0.0019(3)
#End of TTdata_423062-ICSD