
#(C) 2021 by FIZ Karlsruhe - Leibniz Institute for Information Infrastructure.  All rights reserved.
data_406625-ICSD
_database_code_ICSD 406625
_audit_creation_date 1997-11-10
_chemical_name_common 'Hexaoxatetraphosphatricyclodecan dioxide'
_chemical_formula_structural '(P4 O6) O2'
_chemical_formula_sum 'O8 P4'
_chemical_name_structure_type P4O8
_exptl_crystal_density_diffrn 2.47
_diffrn_ambient_temperature 296.
_citation_title 'Darstellung und Kristallstruktur von P4 O8'
loop_
_citation_id
_citation_journal_full
_citation_year
_citation_journal_volume
_citation_page_first
_citation_page_last
_citation_journal_id_ASTM
primary 'Zeitschrift fuer Naturforschung, B: A Journal of Chemical Sciences'
1997 52 906 910 ZNBSEN
loop_
_citation_author_citation_id
_citation_author_name
primary 'Jansen, M.'
primary 'Strojek, S.'
_cell_length_a 9.700(2)
_cell_length_b 10.179(2)
_cell_length_c 6.923(1)
_cell_angle_alpha 90.
_cell_angle_beta 96.95(2)
_cell_angle_gamma 90.
_cell_volume 678.53
_cell_formula_units_Z 4
_space_group_name_H-M_alt 'C 1 2/c 1'
_space_group_IT_number 15
loop_
_space_group_symop_id
_space_group_symop_operation_xyz
1 'x, -y, z+1/2'
2 '-x, -y, -z'
3 '-x, y, -z+1/2'
4 'x, y, z'
5 'x+1/2, -y+1/2, z+1/2'
6 '-x+1/2, -y+1/2, -z'
7 '-x+1/2, y+1/2, -z+1/2'
8 'x+1/2, y+1/2, z'
loop_
_atom_type_symbol
_atom_type_oxidation_number
P3+ 3
P5+ 5
O2- -2
loop_
_atom_site_label
_atom_site_type_symbol
_atom_site_symmetry_multiplicity
_atom_site_Wyckoff_symbol
_atom_site_fract_x
_atom_site_fract_y
_atom_site_fract_z
_atom_site_B_iso_or_equiv
_atom_site_occupancy
P1 P3+ 8 f 0.03912(7) 0.31649(7) 0.05083(10) . 1.
P2 P5+ 8 f 0.14065(7) 0.11536(7) 0.32498(10) . 1.
O1 O2- 4 e 0 0.3831(2) 0.25 . 1.
O2 O2- 4 e 0 0.0379(2) 0.25 . 1.
O3 O2- 8 f 0.0926(2) 0.2085(2) 0.4865(3) . 1.
O4 O2- 8 f 0.1592(2) 0.2104(2) 0.1501(3) . 1.
O5 O2- 8 f 0.2552(3) 0.0306(2) 0.3890(4) . 1.
loop_
_atom_site_aniso_label
_atom_site_aniso_type_symbol
_atom_site_aniso_U_11
_atom_site_aniso_U_22
_atom_site_aniso_U_33
_atom_site_aniso_U_12
_atom_site_aniso_U_13
_atom_site_aniso_U_23
P1 P3+ 0.0275(3) 0.0299(3) 0.0352(4) -.0015(3) 0.0038(3) 0.0095(3)
P2 P5+ 0.0277(3) 0.0248(3) 0.0353(4) 0.0064(3) 0.0016(3) 0.0029(3)
O1 O2- 0.0266(12) 0.0198(11) 0.0434(15) 0 0.0004(11) 0
O2 O2- 0.0351(14) 0.0189(11) 0.0401(15) 0 0.0014(11) 0
O3 O2- 0.0284(9) 0.0307(9) 0.0300(9) 0.0023(7) -.0007(7) 0.0002(8)
O4 O2- 0.0239(8) 0.0334(10) 0.0392(10) 0.0045(7) 0.0093(7) 0.0063(8)
O5 O2- 0.0443(12) 0.0423(12) 0.0624(15) 0.021(1) -.0012(11) 0.0065(11)
#End of TTdata_406625-ICSD