
#(C) 2021 by FIZ Karlsruhe - Leibniz Institute for Information Infrastructure.  All rights reserved.
data_423061-ICSD
_database_code_ICSD 423061
_audit_creation_date 2012-02-01
_audit_update_record 2018-08-01
_chemical_name_common 'catena-diphosphorus heptasulfide - alpha'
_chemical_formula_structural 'P2 S7'
_chemical_formula_sum 'P2 S7'
_exptl_crystal_density_diffrn 2.15
_diffrn_ambient_temperature 293.
_citation_title

;
Rational syntheses and structural characterization of sulfur-rich phosphorus
polysulfides: alpha - P2 S7 and beta - P2 S7
;
loop_
_citation_id
_citation_journal_full
_citation_year
_citation_journal_volume
_citation_page_first
_citation_page_last
_citation_journal_id_ASTM
primary 'Angewandte Chemie, International Edition' 2011 50 10996 11000 ACIEF5
loop_
_citation_author_citation_id
_citation_author_name
primary 'Roedl, T.'
primary 'Weihrich, R.'
primary 'Wack, J.'
primary 'Senker, J.'
primary 'Pfitzner, A.'
_cell_length_a 6.526(2)
_cell_length_b 10.817(4)
_cell_length_c 12.580(3)
_cell_angle_alpha 90.
_cell_angle_beta 93.24(2)
_cell_angle_gamma 90.
_cell_volume 886.62
_cell_formula_units_Z 4
_space_group_name_H-M_alt 'P 1 21/c 1'
_space_group_IT_number 14
loop_
_space_group_symop_id
_space_group_symop_operation_xyz
1 'x, -y+1/2, z+1/2'
2 '-x, -y, -z'
3 '-x, y+1/2, -z+1/2'
4 'x, y, z'
loop_
_atom_type_symbol
_atom_type_oxidation_number
P5+ 5
S1- -1
S0+ 0
S1- -1
S2- -2
loop_
_atom_site_label
_atom_site_type_symbol
_atom_site_symmetry_multiplicity
_atom_site_Wyckoff_symbol
_atom_site_fract_x
_atom_site_fract_y
_atom_site_fract_z
_atom_site_U_iso_or_equiv
_atom_site_occupancy
P1 P5+ 4 e 0.0205(2) 0.68414(9) 0.09876(10) 0.0370(3) 1
P2 P5+ 4 e 0.3400(2) 0.29559(9) 0.31976(10) 0.0358(3) 1
S1 S1- 4 e 0.0771(2) 0.77826(11) 0.43938(10) 0.0432(3) 1
S2 S0+ 4 e 0.1525(3) 0.15700(9) 0.10733(12) 0.0457(3) 1
S3 S1- 4 e 0.4001(2) 0.26131(11) 0.16008(9) 0.0422(3) 1
S4 S2- 4 e 0.03135(19) 0.35388(9) 0.32393(10) 0.0383(3) 1
S5 S2- 4 e 0.28606(19) 0.12397(9) 0.39489(10) 0.0402(3) 1
S6 S2- 4 e 0.2309(2) 0.57365(11) 0.15301(13) 0.0519(4) 1
S7 S2- 4 e 0.5472(2) 0.40388(10) 0.38031(12) 0.0498(3) 1
loop_
_atom_site_aniso_label
_atom_site_aniso_type_symbol
_atom_site_aniso_U_11
_atom_site_aniso_U_22
_atom_site_aniso_U_33
_atom_site_aniso_U_12
_atom_site_aniso_U_13
_atom_site_aniso_U_23
P1 P5+ 0.0347(8) 0.0391(6) 0.0372(7) 0.0001(5) 0.0034(5) -0.0010(5)
P2 P5+ 0.0329(8) 0.0391(5) 0.0355(7) -0.0010(5) 0.0028(5) 0.0002(5)
S1 S1- 0.0365(8) 0.0579(7) 0.0358(7) -0.0006(5) 0.0060(5) 0.0040(5)
S2 S0+ 0.0531(8) 0.0454(6) 0.0383(6) 0.0007(6) 0.0003(5) 0.0003(6)
S3 S1- 0.0391(8) 0.0533(6) 0.0347(7) 0.0019(6) 0.0065(5) 0.0024(5)
S4 S2- 0.0366(8) 0.0398(5) 0.0387(7) 0.0027(5) 0.0052(5) 0.0032(5)
S5 S2- 0.0368(9) 0.0419(5) 0.0422(7) 0.0026(5) 0.0056(6) 0.0053(5)
S6 S2- 0.0376(9) 0.0472(6) 0.0710(10) 0.0041(5) 0.0025(7) 0.0134(6)
S7 S2- 0.0406(9) 0.0473(6) 0.0608(9) -0.0049(5) -0.0033(6) -0.0059(6)
#End of TTdata_423061-ICSD