
#(C) 2021 by FIZ Karlsruhe - Leibniz Institute for Information Infrastructure.  All rights reserved.
data_1703-ICSD
_database_code_ICSD 1703
_audit_creation_date 1986-10-22
_audit_update_record 2014-08-01
_chemical_name_common 'Phosphorus sulfide (4/4) - alpha'
_chemical_formula_structural 'P4 S4'
_chemical_formula_sum 'P4 S4'
_chemical_name_structure_type P4S4
_exptl_crystal_density_diffrn 2.22
_citation_title 'Alpha-tetraphosphorous tetrasulphide'
loop_
_citation_id
_citation_journal_full
_citation_year
_citation_journal_volume
_citation_page_first
_citation_page_last
_citation_journal_id_ASTM
primary

;
Acta Crystallographica, Section B: Structural Crystallography and Crystal
Chemistry
; 1978 34 1326 1328 ACBCAR
loop_
_citation_author_citation_id
_citation_author_name
primary 'Minshall, P.C.'
primary 'Sheldrick, G.M.'
_cell_length_a 9.771(8)
_cell_length_b 9.047(7)
_cell_length_c 8.746(6)
_cell_angle_alpha 90.
_cell_angle_beta 102.67(6)
_cell_angle_gamma 90.
_cell_volume 754.3
_cell_formula_units_Z 4
_space_group_name_H-M_alt 'C 1 2/c 1'
_space_group_IT_number 15
loop_
_space_group_symop_id
_space_group_symop_operation_xyz
1 'x, -y, z+1/2'
2 '-x, -y, -z'
3 '-x, y, -z+1/2'
4 'x, y, z'
5 'x+1/2, -y+1/2, z+1/2'
6 '-x+1/2, -y+1/2, -z'
7 '-x+1/2, y+1/2, -z+1/2'
8 'x+1/2, y+1/2, z'
loop_
_atom_type_symbol
_atom_type_oxidation_number
P0+ 0
S0+ 0
loop_
_atom_site_label
_atom_site_type_symbol
_atom_site_symmetry_multiplicity
_atom_site_Wyckoff_symbol
_atom_site_fract_x
_atom_site_fract_y
_atom_site_fract_z
_atom_site_B_iso_or_equiv
_atom_site_occupancy
P1 P0+ 8 f -.0017(1) 0.2024(3) 0.5666(6) . 1.
P2 P0+ 8 f 0.1501(3) 0.3861(5) 0.8700(9) . 1.
S1 S0+ 4 e 0 0.5380(6) 0.75 . 1.
S2 S0+ 4 e 0 0.0508(6) 0.75 . 1.
S3 S0+ 8 f 0.1960(3) 0.2945(4) 0.6657(7) . 1.
loop_
_atom_site_aniso_label
_atom_site_aniso_type_symbol
_atom_site_aniso_U_11
_atom_site_aniso_U_22
_atom_site_aniso_U_33
_atom_site_aniso_U_12
_atom_site_aniso_U_13
_atom_site_aniso_U_23
P1 P0+ 0.0398(3) 0.0389(3) 0.0258(3) -0.0046(3) 0.0067(2) -0.0047(3)
P2 P0+ 0.0275(3) 0.0380(3) 0.0357(3) -0.0003(3) -0.0012(2) -0.0071(3)
S1 S0+ 0.0412(5) 0.0271(4) 0.0551(6) 0 0.0012(4) 0
S2 S0+ 0.0505(5) 0.0282(4) 0.0388(5) 0 0.0081(4) 0
S3 S0+ 0.0298(3) 0.0535(4) 0.0422(3) -0.0024(3) 0.0134(2) -0.0048(2)
#End of TTdata_1703-ICSD