
#(C) 2021 by FIZ Karlsruhe - Leibniz Institute for Information Infrastructure.  All rights reserved.
data_156197-ICSD
_database_code_ICSD 156197
_audit_creation_date 2007-08-01
_chemical_name_common 'Silicon oxide'
_chemical_formula_structural 'Si O2'
_chemical_formula_sum 'O2 Si1'
_chemical_name_structure_type Quartz(low)#SiO2
_chemical_name_mineral Quartz
_exptl_crystal_density_diffrn 2.64
_citation_title

;
First in situ X-ray identification of coesite and retrograde quartz on a glass
thin section of an ultrahigh-pressure metamorphic rock and their crystal
structure details
;
loop_
_citation_id
_citation_journal_full
_citation_year
_citation_journal_volume
_citation_page_first
_citation_page_last
_citation_journal_id_ASTM
primary 'American Mineralogist' 2007 92 57 63 AMMIAY
loop_
_citation_author_citation_id
_citation_author_name
primary 'Ikuta, D.'
primary 'Kawame, N.'
primary 'Banno, S.'
primary 'Hirajima, T.'
primary 'Ito, K.'
primary 'Rakovan, J.F.'
primary 'Downs, R.T.'
primary 'Tamada, O.'
_cell_length_a 4.918(1)
_cell_length_b 4.918(1)
_cell_length_c 5.407(1)
_cell_angle_alpha 90.
_cell_angle_beta 90.
_cell_angle_gamma 120.
_cell_volume 113.26
_cell_formula_units_Z 3
_space_group_name_H-M_alt 'P 32 2 1'
_space_group_IT_number 154
loop_
_space_group_symop_id
_space_group_symop_operation_xyz
1 '-x, -x+y, -z+2/3'
2 'x-y, -y, -z+1/3'
3 'y, x, -z'
4 '-x+y, -x, z+1/3'
5 '-y, x-y, z+2/3'
6 'x, y, z'
loop_
_atom_type_symbol
_atom_type_oxidation_number
Si4+ 4
O2- -2
loop_
_atom_site_label
_atom_site_type_symbol
_atom_site_symmetry_multiplicity
_atom_site_Wyckoff_symbol
_atom_site_fract_x
_atom_site_fract_y
_atom_site_fract_z
_atom_site_U_iso_or_equiv
_atom_site_occupancy
Si1 Si4+ 3 a 0.4696(2) 0 0.6667 0.0077 1.
O1 O2- 6 c 0.4132(5) 0.2679(4) 0.7858(3) 0.0123 1.
loop_
_atom_site_aniso_label
_atom_site_aniso_type_symbol
_atom_site_aniso_U_11
_atom_site_aniso_U_22
_atom_site_aniso_U_33
_atom_site_aniso_U_12
_atom_site_aniso_U_13
_atom_site_aniso_U_23
Si1 Si4+ 0.0090(5) 0.0069(5) 0.0065(5) 0.0034(3) -0.0002(2) -0.0003(3)
O1 O2- 0.0166(10) 0.0123(11) 0.0113(10) 0.0097(8) -0.0039(8) -0.0036(7)
#End of TTdata_156197-ICSD