
#(C) 2021 by FIZ Karlsruhe - Leibniz Institute for Information Infrastructure.  All rights reserved.
data_42777-ICSD
_database_code_ICSD 42777
_audit_creation_date 2000-07-15
_audit_update_record 2012-02-01
_chemical_name_common 'Phosphorus oxide (4/8)'
_chemical_formula_structural 'P4 O8'
_chemical_formula_sum 'O8 P4'
_chemical_name_structure_type P4O8
_exptl_crystal_density_diffrn 2.49
_citation_title 'Molecular structure of P4 O6 and P4 O8'
loop_
_citation_id
_citation_journal_full
_citation_year
_citation_journal_volume
_citation_page_first
_citation_page_last
_citation_journal_id_ASTM
primary 'Transactions of the Faraday Society' 1969 65 1219 1230 TFSOA4
loop_
_citation_author_citation_id
_citation_author_name
primary 'Beagley, B.'
primary 'Cruickshank, D.W.J.'
primary 'Hewitt, T.G.'
primary 'Jost, K.H.'
_cell_length_a 9.66(4)
_cell_length_b 10.10(4)
_cell_length_c 6.93(3)
_cell_angle_alpha 90.
_cell_angle_beta 96.8(3)
_cell_angle_gamma 90.
_cell_volume 671.38
_cell_formula_units_Z 4
_space_group_name_H-M_alt 'C 1 2/c 1'
_space_group_IT_number 15
loop_
_space_group_symop_id
_space_group_symop_operation_xyz
1 'x, -y, z+1/2'
2 '-x, -y, -z'
3 '-x, y, -z+1/2'
4 'x, y, z'
5 'x+1/2, -y+1/2, z+1/2'
6 '-x+1/2, -y+1/2, -z'
7 '-x+1/2, y+1/2, -z+1/2'
8 'x+1/2, y+1/2, z'
loop_
_atom_type_symbol
_atom_type_oxidation_number
P3+ 3
P5+ 5
O2- -2
loop_
_atom_site_label
_atom_site_type_symbol
_atom_site_symmetry_multiplicity
_atom_site_Wyckoff_symbol
_atom_site_fract_x
_atom_site_fract_y
_atom_site_fract_z
_atom_site_B_iso_or_equiv
_atom_site_occupancy
P1 P3+ 8 f 0.0386(5) 0.3159(5) 0.0499(13) . 1.
P2 P5+ 8 f 0.1401(5) 0.1158(4) 0.3234(12) . 1.
O1 O2- 4 e 0 0.3839(16) 0.25 . 1.
O2 O2- 4 e 0 0.0383(16) 0.25 . 1.
O3 O2- 8 f 0.0924(11) 0.2092(11) 0.4886(26) . 1.
O4 O2- 8 f 0.1585(12) 0.2099(12) 0.1512(27) . 1.
O5 O2- 8 f 0.2533(15) 0.0318(13) 0.3863(32) . 1.
loop_
_atom_site_aniso_label
_atom_site_aniso_type_symbol
_atom_site_aniso_U_11
_atom_site_aniso_U_22
_atom_site_aniso_U_33
_atom_site_aniso_U_12
_atom_site_aniso_U_13
_atom_site_aniso_U_23
P1 P3+ 0.028(2) 0.041(3) 0.075(10) 0.020(8) -.004(7) -.005(4)
P2 P5+ 0.031(2) 0.033(2) 0.060(9) 0.011(7) -.012(6) 0.014(3)
O1 O2- 31.(9) 0.032(10) 0.085(35) 0.014(21) -.034(33) 0.014(21)
O2 O2- 52.(11) 0.035(9) 0.039(31) -.001(22) 0.012(34) -.001(22)
O3 O2- 28.(6) 0.037(6) 0.061(18) 0.006(16) -.001(15) -.005(9)
O4 O2- 35.(6) 0.048(7) 0.048(19) -.020(18) 0.016(17) 0.023(11)
O5 O2- 54.(7) 0.059(9) 0.062(23) 0.030(22) -.001(19) 0.046(14)
#End of TTdata_42777-ICSD