
#(C) 2021 by FIZ Karlsruhe - Leibniz Institute for Information Infrastructure.  All rights reserved.
data_423037-ICSD
_database_code_ICSD 423037
_audit_creation_date 2012-02-01
_chemical_name_common 'Tetraphosphorus hexasulfide - gamma'
_chemical_formula_structural 'P4 S6'
_chemical_formula_sum 'P4 S6'
_chemical_name_structure_type P4O6
_exptl_crystal_density_diffrn 2.19
_diffrn_ambient_temperature 293.
_citation_title 'The crystal and molecular structure of gamma P4 S6'
loop_
_citation_id
_citation_journal_full
_citation_year
_citation_journal_volume
_citation_page_first
_citation_page_last
_citation_journal_id_ASTM
primary 'Zeitschrift fuer Anorganische und Allgemeine Chemie (1950) (DE)' 2011
637 1507 1510 ZAACAB
loop_
_citation_author_citation_id
_citation_author_name
primary 'Roedl, T.'
primary 'Pfitzner, A.'
primary 'Baumer, V.N.'
primary 'Slobodyanik, N.S.'
primary 'Shishkin, O.V.'
_cell_length_a 6.627(3)
_cell_length_b 10.504(7)
_cell_length_c 6.878(3)
_cell_angle_alpha 90.
_cell_angle_beta 90.18(4)
_cell_angle_gamma 90.
_cell_volume 478.78
_cell_formula_units_Z 2
_space_group_name_H-M_alt 'P 1 21/m 1'
_space_group_IT_number 11
loop_
_space_group_symop_id
_space_group_symop_operation_xyz
1 'x, -y+1/2, z'
2 '-x, -y, -z'
3 '-x, y+1/2, -z'
4 'x, y, z'
loop_
_atom_type_symbol
_atom_type_oxidation_number
P3+ 3
S2- -2
loop_
_atom_site_label
_atom_site_type_symbol
_atom_site_symmetry_multiplicity
_atom_site_Wyckoff_symbol
_atom_site_fract_x
_atom_site_fract_y
_atom_site_fract_z
_atom_site_U_iso_or_equiv
_atom_site_occupancy
P1 P3+ 4 f 0.2485(3) 0.1118(2) 0.2612(4) 0.0402(6) 1
P2 P3+ 2 e 0.2046(5) 0.25 0.5084(5) 0.0442(8) 1
P3 P3+ 2 e 0.6795(5) 0.25 0.3851(6) 0.0531(10) 1
S1 S2- 4 f 0.1055(3) 0.5460(2) 0.2492(4) 0.0512(6) 1
S2 S2- 4 f 0.5638(3) 0.0890(2) 0.2396(4) 0.0526(7) 1
S3 S2- 2 e 0.1533(6) 0.25 0.0562(6) 0.0543(9) 1
S4 S2- 2 e 0.4878(5) 0.25 0.6368(6) 0.0534(9) 1
loop_
_atom_site_aniso_label
_atom_site_aniso_type_symbol
_atom_site_aniso_U_11
_atom_site_aniso_U_22
_atom_site_aniso_U_33
_atom_site_aniso_U_12
_atom_site_aniso_U_13
_atom_site_aniso_U_23
P1 P3+ 0.0351(10) 0.0391(10) 0.0463(13) -0.0017(8) -0.0011(10) -0.0022(10)
P2 P3+ 0.0394(16) 0.0411(16) 0.052(2) 0. 0.0052(14) 0.
P3 P3+ 0.0303(16) 0.055(2) 0.074(3) 0. 0.0000(15) 0.
S1 S2- 0.0474(12) 0.0432(11) 0.0629(15) 0.0075(9) -0.0076(12) 0.0000(12)
S2 S2- 0.0347(11) 0.0479(12) 0.0752(17) 0.0047(9) 0.0031(11) -0.0083(12)
S3 S2- 0.059(2) 0.0448(17) 0.059(2) 0. -0.0225(17) 0.
S4 S2- 0.0446(17) 0.058(2) 0.058(2) 0. -0.0121(16) 0.
#End of TTdata_423037-ICSD